LAMMPS data file via write_data, version 19 Nov 2024, timestep = 200000, units = lj

2000 atoms
2 atom types
999 bonds
1 bond types

0 30 xlo xhi
0 30 ylo yhi
0 30 zlo zhi

Masses

1 1
2 1

PairIJ Coeffs # lj/cut

1 1 1 1 1.12246
1 2 0.9 0.95 1.12246
2 2 0.8 0.9 1.12246

Bond Coeffs # fene

1 30 1.5 1 1

Atoms # bond

1279 0 2 14.335271285743394 5.2106112964063245 29.150044033384457 -3 -1 1
1574 0 2 10.694664559705387 29.96931731164164 25.653762601184038 0 -3 2
1820 0 2 0.23065482642027466 5.147336585490185 29.84546567377518 4 -1 -2
1359 0 2 6.718865299394669 6.732450469490662 0.949988374394987 9 4 0
1040 0 2 15.089727821797133 1.5192019330157234 26.64001285275122 -2 -1 -1
1559 0 2 18.712499534487232 4.171006706593817 28.73645372770036 4 0 -2
1604 0 2 12.116446886154149 4.440805867458793 1.8892107167580308 -2 -1 1
1441 0 2 2.3394894136685487 10.666841717149198 4.429948848028282 -2 0 0
1903 0 2 21.090621204830015 29.05887829486945 29.406400662000603 6 -1 -1
864 1 1 11.851092637057992 8.546211886383936 26.91533935505118 1 0 0
856 1 1 11.453728406861668 7.489156873451961 0.31475523809576983 1 0 1
805 1 1 20.73808480998067 9.559015925072462 29.568940106457873 1 0 0
806 1 1 20.651964947980566 10.277001809462776 0.27199396507075274 1 0 1
855 1 1 12.22997791471659 7.494875061116843 0.9821815688404439 1 0 1
851 1 1 13.064756527601178 9.617997672733337 0.642722203760302 1 0 1
854 1 1 12.537356444803523 8.415697264191243 1.0721076033200987 1 0 1
853 1 1 12.550312428064592 8.141679751437817 0.18209717609612747 1 0 1
837 1 1 17.92067036700974 9.802687744711658 2.252067672560371 1 0 1
810 1 1 22.135654557906975 10.15675225994994 1.9709327556528393 1 0 1
813 1 1 23.52263993578693 10.385346261403999 2.6155248165289073 1 0 1
1299 0 2 29.645973756171824 8.262947230117732 27.029053480955323 -4 -2 2
843 1 1 16.011149865378233 11.77853056149004 1.3626562878875927 1 0 1
1384 0 2 29.6024991781769 21.97099939290667 26.15174491930461 1 3 -2
1327 0 2 6.704101300068917 14.262004055061894 26.364206627394882 -1 0 -2
823 1 1 20.82425479258126 12.638669794941949 2.5195515827807395 1 0 1
822 1 1 20.583598891964918 13.451233639319387 2.0296815987953307 1 0 1
815 1 1 23.52762233149559 10.554634848679251 1.4630547132442537 1 0 1
816 1 1 22.840949092105955 11.061294074782216 0.9760848394951299 1 0 1
571 1 1 0.5180856335781516 12.463392734346534 29.99758573976921 2 0 -1
293 1 1 17.998893037058743 16.202748852190275 29.52005425849967 0 -1 -1
1061 0 2 22.785501945149 19.535564083502965 26.22011512901282 3 -5 -3
1608 0 2 12.299532762121034 15.499771600352322 29.05312794604256 -4 -2 0
304 1 1 19.65067665114698 16.400026068545593 1.695863538284039 0 -1 0
578 1 1 25.77880136933329 13.437247427223568 29.889153625015275 1 0 -1
305 1 1 20.541944681269793 16.594368276505936 2.2148728992066142 0 -1 0
303 1 1 19.973764764484176 15.771556306093197 0.9301501326482843 0 -1 0
581 1 1 27.05150244602043 13.771856270983898 1.8215686890305536 1 0 0
582 1 1 26.512624400567205 14.494485568591573 2.180952591882264 1 0 0
143 1 1 15.249239754884403 22.348824016984235 2.8231790839910094 0 -1 0
144 1 1 15.342913984554253 22.459212329609812 1.8388552857752234 0 -1 0
1621 0 2 8.721835442619396 25.630455523086827 5.929664263364549 2 1 -2
153 1 1 16.255201694425374 24.57665125340487 27.729069757124318 0 -1 -1
1578 0 2 26.104832803410645 19.572783667561584 4.336678894223856 -3 -4 1
1360 0 2 27.87695803935134 28.408057845212475 27.210016463558645 -1 -3 2
1352 0 2 23.363566085469536 24.146204604225805 5.03185356824362 -5 3 3
1448 0 2 3.073922025106739 27.38563750313087 0.8486801151727563 3 -1 -3
1853 0 2 1.6228350518369783 21.898112712710972 26.902269976004057 4 1 1
1318 0 2 15.850341549620259 26.19688268934331 0.6415081876601745 2 3 1
412 1 1 10.257983436711484 29.003930948548124 4.554139718941587 1 -1 0
1561 0 2 26.85787329605409 27.697762671018996 5.724332278445431 1 0 6
1753 0 2 19.117345437224856 25.86587098237455 1.8630299517223248 1 0 1
1117 0 2 9.883192177686553 29.2998858071259 13.978193192729833 -1 -3 0
1855 0 2 27.88480563282438 7.527972122293876 1.1213593627358296 0 2 -4
1655 0 2 17.5202640176009 0.8158381107059505 29.153570474043892 1 -1 -1
1362 0 2 14.548796197839604 0.642014129233301 5.306088086252941 2 -1 1
1814 0 2 13.992970481927953 7.34669021720129 4.145509755207018 -1 -3 1
1534 0 2 16.74383028973541 3.61935057210522 28.128475835813333 1 -2 4
1231 0 2 5.299191066391614 7.359090917609827 25.78677117708913 0 0 -1
863 1 1 11.002848592271404 8.106575733774202 26.657506084275724 1 0 0
862 1 1 11.433696131151637 7.346617787766962 27.124107761578145 1 0 0
850 1 1 13.222824784555067 10.56872164652742 0.4990193616257656 1 0 1
807 1 1 21.38674326628196 9.736151435255394 0.46197780402762006 1 0 1
836 1 1 18.246325016856105 10.631680475025721 2.6148949205791534 1 0 1
808 1 1 21.505552640968208 9.057499952745458 1.1382171882137229 1 0 1
845 1 1 14.91519571457777 11.025204792453591 1.074170568235476 1 0 1
838 1 1 17.082965160059537 9.558992614227122 2.6071999086723 1 0 1
809 1 1 22.072121222944922 9.21737678187075 1.8939399431610158 1 0 1
1501 0 2 22.44219092619274 10.38143002913305 0.34497151103421975 4 -5 3
844 1 1 15.354777395746723 11.344860531867829 1.8519293297253965 1 0 1
568 1 1 0.14953452315326288 11.000674426852607 1.6605396026051797 2 0 0
1007 0 2 15.459737780264014 13.08971050863063 4.680559249237857 3 -3 0
842 1 1 16.90775607223691 11.63460556667694 1.5880043601854288 1 0 1
569 1 1 29.995611662509 11.86977546165935 1.3533514052638216 1 0 0
564 1 1 1.2689719240717638 13.907751187738702 2.115670083252282 2 0 0
1822 0 2 15.980850084821299 14.643381809552086 3.251599688369064 -3 0 0
824 1 1 21.25512859465505 11.791246285560174 2.3659479171164555 1 0 1
821 1 1 20.544066522675546 13.772298864138135 1.1230703590636566 1 0 1
570 1 1 0.3960294683414084 12.632076515588517 0.9321960355796417 2 0 0
820 1 1 21.390802275140842 13.424970787125103 0.9738784484227803 1 0 1
572 1 1 29.591451688892356 12.477394460075407 29.7809199680423 1 0 -1
1927 0 2 23.0923728948994 9.38105908455573 6.330993297361081 1 -3 0
1623 0 2 3.0895258300889137 16.487222841434477 7.202640959726805 -1 2 3
583 1 1 25.94920533294893 14.302293598550671 2.9643852840955236 1 0 0
1211 0 2 1.7991330709945115 17.221060538061863 26.92710792492818 2 -1 1
307 1 1 21.2317870057382 18.116475016966277 3.1877677178094257 0 -1 0
141 1 1 15.191044899832153 20.82384436861421 2.7894392862976845 0 -1 0
1239 0 2 15.843910321247396 29.6086833147197 23.378273091905292 1 0 2
142 1 1 15.77213748326049 21.5785850377346 3.0179222169391715 0 -1 0
1323 0 2 26.504769654015586 27.49534349902304 0.9308624321872156 3 1 1
1156 0 2 15.873185294068737 26.2622312944708 1.7290976180589974 0 -3 -3
1805 0 2 11.595136573349224 25.841618461351075 6.1150648381340496 1 -3 0
1511 0 2 10.208915820666657 25.45493035954193 28.30399346071157 2 3 3
413 1 1 10.446923444928863 28.15063465495383 4.95013809650333 1 -1 0
1190 0 2 13.105054467386262 0.47413925509923666 28.31853689611494 1 -1 -1
1839 0 2 24.41099262608356 0.418733755954193 6.4588024268710456 1 -1 4
1917 0 2 11.306687368742125 24.918518040418075 25.056625027601452 0 -1 -3
1232 0 2 10.899715421276682 28.67229157866887 7.383667681285254 4 2 2
1521 0 2 15.400006331124116 8.005913907741169 29.107089720072505 -1 0 2
1319 0 2 24.52734176092895 5.35484810125273 0.01263120661452696 -3 0 -2
1344 0 2 18.152897470430215 8.462962876385843 27.052851915871344 2 3 -1
1083 0 2 4.708499405609083 1.8359725945744967 27.87982919788799 -1 -2 3
857 1 1 10.657732335795489 7.821548771376082 0.7903205979731125 1 0 1
849 1 1 13.3867290506237 10.04798294231329 29.677360155309856 1 0 0
848 1 1 14.215057065718907 10.648660525777185 29.571470005642123 1 0 0
860 1 1 11.185259214936313 7.258543513545284 28.94016084564574 1 0 0
858 1 1 10.458839064601532 7.412202859280231 29.96351728134533 1 0 0
847 1 1 14.85931442507758 11.3882980934086 29.670736185450966 1 0 0
846 1 1 15.486313908552264 11.261627898963114 0.32457727038286566 1 0 1
1744 0 2 3.203099699154772 9.630314759458875 6.334371777242911 1 1 2
1058 0 2 5.466565780589332 9.856017274557143 28.08263996395727 1 1 -3
839 1 1 16.249874943711237 10.138894319849074 2.526286233760322 1 0 1
1199 0 2 3.7662659411297996 7.41256720969356 1.1760004701161255 -2 -2 -4
841 1 1 17.390049335679954 10.801961715594468 1.6234804515446586 1 0 1
1575 0 2 27.228645944879563 10.612705102627675 28.86086095860103 0 -4 0
567 1 1 0.783089228031836 11.566013765048567 2.0390241431062615 2 0 0
566 1 1 1.2448594477719124 12.463572647538768 2.1064187778667107 2 0 0
825 1 1 20.64355341762495 11.069089218486898 2.337337868212546 1 0 1
826 1 1 19.978636259262565 11.619162045567062 1.7893231323597067 1 0 1
565 1 1 0.6839570786603483 13.188627033835882 1.8193409366419295 2 0 0
819 1 1 21.675295954430815 12.812337981018699 1.6466727003389694 1 0 1
817 1 1 22.300206329998836 11.619725633185439 0.41303881919526203 1 0 1
562 1 1 0.6559462356084805 14.520708709960674 2.9857502647336167 2 0 0
563 1 1 1.2658736070355252 13.790935696352035 3.0932624933165846 2 0 0
573 1 1 28.591355267185417 12.54028931287004 29.559458720708477 1 0 -1
574 1 1 28.493417638472767 12.96238897576348 28.65325722452887 1 0 -1
575 1 1 27.548747047522905 13.17563959245055 28.76944289109989 1 0 -1
1801 0 2 24.077170938341634 16.530522102810348 26.38086517072032 0 4 0
576 1 1 26.78228114252366 12.64798452940726 28.579827307873856 1 0 -1
306 1 1 21.003210120911532 17.46895015831624 2.5396565272724136 0 -1 0
584 1 1 26.050465586451303 15.193687631997516 3.103415004269569 1 0 0
577 1 1 26.42259249410003 13.20827901569203 29.23225927936141 1 0 -1
1192 0 2 14.758411358754845 12.297574580897503 28.336779342342698 -1 -4 4
1062 0 2 11.703239410290685 20.04699296812319 28.940973620382824 1 -3 -3
1714 0 2 0.2139561384051949 22.695693673379004 3.812969451715281 -3 0 0
1599 0 2 27.926203699455563 17.216419042268125 0.15187217555002888 0 -1 3
1520 0 2 27.32168947350624 23.01570331915532 28.82990823819658 2 -1 -4
308 1 1 21.24250918884873 18.72928756944168 2.4047092138930584 0 -1 0
140 1 1 14.965002403987592 19.978995162494247 2.538291074041677 0 -1 0
309 1 1 22.06929713082579 18.24315030268539 2.5641810547239157 0 -1 0
139 1 1 14.75473540227191 19.183012134644642 2.9983541378150664 0 -1 0
310 1 1 22.027975704767297 18.01397615352314 1.634567237882641 0 -1 0
1421 0 2 1.2016823460468098 28.47106927287496 26.933546175965667 1 -5 0
1091 0 2 6.7224894447150625 24.190284908623447 26.89795922748863 -3 -3 0
1895 0 2 28.98016549226402 18.834538375457036 24.274376603929145 3 -2 1
1678 0 2 11.115740015213415 24.387772498763262 5.023832147217115 0 1 1
1218 0 2 10.936413726448421 17.532255344752286 28.99994028606605 4 -1 3
1591 0 2 28.558479896812116 21.628824402372558 2.8357353334404576 -2 -3 1
1291 0 2 28.82889267143082 29.006757135268987 1.8812923357112272 2 -1 2
414 1 1 11.018585003484219 27.858026116142266 5.723223146457599 1 -1 0
415 1 1 11.475708233543392 27.156756957062054 5.2567443159148715 1 -1 0
416 1 1 12.287394659378126 26.57089971064631 5.203138833983695 1 -1 0
1248 0 2 25.149384895490392 22.63220908849392 27.753780775610586 1 1 1
1087 0 2 0.22832610300419548 21.129083729310967 5.399362749626485 -2 -1 -2
411 1 1 9.76995478322368 28.57908450888151 3.7238656709297056 1 -1 0
1168 0 2 27.138756426073453 28.944518160988398 0.4505346787352624 -3 -1 3
1875 0 2 3.620666845939105 27.20731279347892 28.749118459751077 5 1 -1
1230 0 2 16.690047026803956 27.650780316528284 25.982336297971237 -2 -4 2
1463 0 2 22.08818422752495 25.42784184123421 1.2005552702286504 0 -3 -1
1789 0 2 1.5697047914070672 0.05104089126828463 8.520341374871634 -1 0 1
1115 0 2 11.015396658633165 1.8023023276490964 2.843844774200387 0 -3 3
1742 0 2 24.486078101710884 5.097755901915153 25.281423726739735 3 0 -1
1568 0 2 12.249077634556793 7.750919800665742 9.522211880635206 2 1 4
1467 0 2 29.679246500780604 6.63708697580308 6.80870086252541 -4 6 7
1102 0 2 16.939988986142158 6.737644805940487 29.922950425339938 2 -2 -1
1914 0 2 17.254123969012753 8.656480190626871 3.0745232270933354 3 -3 2
1260 0 2 24.35310008964319 9.768319027299777 0.5567517406800051 -3 -1 2
1954 0 2 8.00736427014576 29.570373912683934 10.84066884231276 2 -3 2
1893 0 2 9.013916860035735 6.894656249386504 8.388115240989611 2 5 -1
861 1 1 11.411643742835063 6.999368678227836 28.069928320176494 1 0 0
1334 0 2 2.119158008722525 5.1858084571767105 8.446491796938457 -1 4 -1
859 1 1 10.95779181304404 8.089776995294152 29.458060492358694 1 0 0
1958 0 2 22.420492986807748 5.721854347799641 7.243140930128037 4 -2 5
834 1 1 18.13318577600345 10.914797908156746 3.6663526541321407 1 0 1
835 1 1 17.437485109637752 10.938600903379472 2.984881575846473 1 0 1
1130 0 2 5.445752930612095 6.300964865119895 24.392102616901823 2 4 -2
1150 0 2 16.288273935088426 12.351926330747336 5.2604029452013155 1 6 -1
1698 0 2 29.606466871678407 21.011762261242712 29.445858125735416 5 4 3
1970 0 2 10.568197362413322 12.53747540555338 6.336583066233725 2 -1 -3
1048 0 2 7.8021335184479055 14.219685911504385 25.54451956181956 -4 -3 -8
840 1 1 16.630934434475854 10.167026981746154 1.6662203993422218 1 0 1
608 1 1 24.870627650064243 9.374181666901315 2.7572988361274584 1 0 0
1871 0 2 6.354199552023919 9.496927783086003 3.8921042044182226 6 0 5
827 1 1 19.033289442913418 11.839237808876275 1.7102265225759063 1 0 1
551 1 1 2.6127677379876544 14.880875267734131 6.40011100291777 2 0 0
1337 0 2 10.033320902291159 12.495954550106738 8.816981782965073 1 -1 -1
818 1 1 21.695375002560862 12.113941822350997 0.9978662217346325 1 0 1
552 1 1 1.6574467506241266 14.987243761134321 6.158867544483623 2 0 0
553 1 1 2.2762946676910896 15.144002153922944 5.4198701702100465 2 0 0
1220 0 2 4.628928111531224 4.992861349783157 13.345413944234075 1 7 -1
1126 0 2 8.83857549394104 10.619761541089435 2.71191747944716 0 1 -5
1182 0 2 13.674127268868983 25.81871711754812 27.534173832297814 6 -4 -6
1409 0 2 26.212405813682683 20.57275495146426 22.913649299111164 0 1 1
585 1 1 26.06386154110069 15.143635972074623 4.0340822049496605 1 0 0
1458 0 2 4.709540373095611 16.557987127414936 26.053298607181144 -4 -3 -3
311 1 1 22.255778136819806 18.121065405903853 0.7019248381628326 0 -1 0
1780 0 2 5.705440536283122 16.00479488720639 0.9861085209176008 -1 -3 2
1864 0 2 16.365734040720916 24.683044722333594 9.354606591654747 -2 3 -5
1688 0 2 4.6947646948691215 19.008128529303114 0.7313127730141331 -3 1 0
1989 0 2 12.91121918664724 29.25200668623485 27.908351799880144 1 0 0
1064 0 2 25.481923728066416 26.869859519985855 3.295334598715644 2 -2 1
1346 0 2 19.18464106678706 19.12571792402759 0.726001229839049 0 -4 -3
417 1 1 12.90148262161427 26.726940810412632 4.514390497860874 1 -1 0
1838 0 2 3.50923476033611 20.471685000397645 1.411613568019474 -4 -2 1
409 1 1 9.290973434593495 26.885089326593743 4.131416474584137 1 -1 0
418 1 1 13.277074907558802 26.626833352746544 3.607459903593678 1 -1 0
420 1 1 14.130028610980512 26.18740914641683 3.9772122483871484 1 -1 0
410 1 1 9.75274985611236 27.72485293898452 4.246230618854247 1 -1 0
1137 0 2 23.921267728349473 29.759196716029727 1.9904777795394895 3 3 -2
1276 0 2 3.47480821523609 0.6243219412704224 2.2697072675920937 3 2 0
1943 0 2 28.996882687770526 8.2272917580806 6.67317048231968 -2 1 4
1662 0 2 16.131282180357267 5.3466977336042305 28.900063857401836 -1 -2 -4
1929 0 2 5.229305239757888 3.5725004723171354 28.93290393222146 -4 4 1
1059 0 2 19.45410355232378 8.674828868071014 0.40714230899192144 0 -1 -1
1326 0 2 24.235641232282543 2.9298910154159676 2.5411983009401125 0 -2 1
1395 0 2 8.023340603326336 9.844735226291993 5.32739875655966 1 -7 -2
1159 0 2 10.708780336140874 6.967954587151312 6.403471239989862 -2 -1 2
833 1 1 19.09269980074281 11.024317514534369 3.7067019914875554 1 0 1
611 1 1 25.625575416411547 8.387390342720606 4.66850942734424 1 0 0
1527 0 2 5.788064540322697 12.738779945274816 3.491312524594129 -2 2 -2
1076 0 2 2.282397391347913 17.292421546025466 1.0498595683781125 1 1 -4
1833 0 2 27.75496425291068 8.990521980291117 1.7718318723925601 1 5 -2
831 1 1 19.334267839790712 12.465402548345285 3.416197252184483 1 0 1
609 1 1 25.380096994561693 8.683003488452668 3.2937911115916414 1 0 0
828 1 1 19.55545540903942 12.447205680994589 2.200073089307645 1 0 1
607 1 1 24.791246549624095 10.314375292442689 2.966002796639492 1 0 0
1609 0 2 14.941656313628009 14.068038358569543 1.1824868704067755 3 0 0
550 1 1 3.547134376128433 15.015843288718713 6.320073917070071 2 0 0
1725 0 2 9.596714055314674 21.294518209973717 1.5464892322742456 0 1 7
1931 0 2 26.898463245240734 13.53108510786408 3.4421348064240025 -3 2 3
561 1 1 0.10973521333420758 15.257053163569159 2.733799155346591 2 0 0
554 1 1 1.7475259490332489 15.524403444703017 4.757859201745474 2 0 0
560 1 1 0.3347995422039843 15.609227182530017 1.8659363003276053 2 0 0
591 1 1 24.86946731073256 13.096319181193548 3.899382741906381 1 0 0
559 1 1 0.6280046518754786 16.37277504711193 2.3785091979459447 2 0 0
1777 0 2 5.013973012364888 20.532448870654523 1.0457758013511878 -2 5 2
586 1 1 25.66679470140545 15.980202905946364 3.7486160766141885 1 0 0
1030 0 2 24.53448372498449 17.413021966226832 6.852405780725903 4 -3 3
135 1 1 16.05189056586991 19.8563383840483 3.4975954747603413 0 -1 0
138 1 1 15.66832027898066 19.07474224440341 3.1279681484608437 0 -1 0
312 1 1 22.69214757487043 17.396867311223602 1.143783188960605 0 -1 0
1545 0 2 0.7266334916695253 17.854704825347103 0.5557001947061777 3 0 2
1897 0 2 18.364873616365045 24.954987677989127 2.9573108733034914 4 1 -3
1495 0 2 16.89267644879733 27.681715576170706 1.832652872869106 -1 -3 -2
1669 0 2 7.40486239749718 23.165119834989888 5.248248620740488 7 -1 -2
1785 0 2 22.892595569209796 22.39603606814558 2.6923660045333633 -3 1 -2
419 1 1 14.175649310610176 26.678317792164172 3.1961323527680925 1 -1 0
1783 0 2 25.281050221110423 29.33864623307513 0.8778965926294828 6 4 7
1110 0 2 22.677351409551175 3.253155359886545 29.659490287305402 -2 1 1
1845 0 2 29.707374526205776 29.097476147679256 5.234476698618844 0 -2 2
1429 0 2 23.87928069264199 27.587794637969225 28.401602817249852 1 0 -2
1381 0 2 2.6562745356226674 29.703227894797475 27.425082232393933 -1 -2 -2
1413 0 2 23.23906673522891 7.495115787553663 27.89518818899424 5 -4 1
1081 0 2 21.090275942781524 29.73276747753522 1.4076320926340247 2 1 2
1473 0 2 18.08477179617742 8.657380768879067 2.2257463427814135 -3 -1 -1
832 1 1 19.620081906485435 11.571933207876382 3.0242972759399582 1 0 1
612 1 1 25.655497819566225 7.442145488480043 4.975886617794718 1 0 0
610 1 1 25.730363064346527 7.941668885075984 3.8067153333011623 1 0 0
1683 0 2 7.759572448285824 6.167729253458575 4.1258112381021 5 0 -4
1870 0 2 16.473364144966165 10.898463822892639 4.4354003702686535 0 2 -1
830 1 1 18.589983267235738 13.014225851501992 3.249541685259727 1 0 1
829 1 1 18.69333130149275 12.840349390642805 2.305439065365813 1 0 1
606 1 1 24.813418731190506 10.711830444108417 3.8432148617779536 1 0 0
1872 0 2 23.12320880090712 15.395302872497851 6.964119313934235 1 -6 4
549 1 1 3.125595308201816 14.423629441836253 5.72451402435423 2 0 0
547 1 1 3.575604251061652 12.71457390626757 6.279339604469431 2 0 0
546 1 1 4.422866442982272 13.118176324154804 6.628674210538171 2 0 0
592 1 1 24.144455887848263 12.429533841307313 3.9559545911464338 1 0 0
1161 0 2 15.970492020349454 18.983263990758573 5.357553241968609 -1 3 4
1464 0 2 29.473806330700008 18.984662093230998 11.090816227259664 -2 -3 0
555 1 1 1.4743691787588273 16.406744167358685 4.95703054134166 2 0 0
590 1 1 24.65989525123818 13.967939908944343 4.141887567226614 1 0 0
558 1 1 29.898153788366837 16.435463288460397 3.089259206005713 1 0 0
1029 0 2 17.24051975466126 19.498571986364965 7.179232235066416 -1 3 -3
1522 0 2 28.102137204004062 11.54109603623614 8.068547834182207 0 2 1
1176 0 2 9.420561272932792 17.207175498098508 2.420274150209987 2 0 1
1973 0 2 26.546483901995522 17.789409378240922 2.7593660686436583 -4 -4 -3
136 1 1 16.858689219846 19.4714133553381 3.2310079782322187 0 -1 0
134 1 1 15.703502854454063 20.042093999250643 4.4357282579895045 0 -1 0
1310 0 2 1.854330198811488 19.985828206829282 4.1410750299419465 -2 -1 -3
137 1 1 16.33097441973265 19.233760364703905 2.4320043117408114 0 -1 0
313 1 1 23.287366403216286 18.17168801803409 1.2633044384155523 0 -1 0
314 1 1 22.85390089263406 18.80059229238191 1.8556486861018209 0 -1 0
316 1 1 24.001226026969636 19.38667732064855 3.147332380110696 0 -1 0
1128 0 2 11.934535885545731 1.9619682758643904 9.708815035728778 1 -1 1
315 1 1 23.147314083155848 19.113605028359874 2.7420632049986793 0 -1 0
1788 0 2 9.584871351821791 23.986034156737837 27.843828660482963 0 2 -4
1878 0 2 7.526252471827086 28.33786742744222 3.3010691780114327 1 -1 -3
1866 0 2 7.193969541120529 29.818061052424028 2.256037423136427 3 -1 -1
1951 0 2 26.140105454314227 15.874573433967843 1.8213316701643896 -2 2 -5
1810 0 2 19.344589983494505 24.792334787854944 12.635951814475202 -4 -1 -3
1691 0 2 20.356458614042314 27.429707944152824 8.003944681392575 1 0 0
1164 0 2 29.366289335725334 2.765692741837385 6.898488792750144 0 1 -2
1508 0 2 29.180346504260843 26.713776095532374 9.102803244726875 8 0 0
407 1 1 8.281950159567636 27.88316696283735 4.496201873219173 1 -1 0
408 1 1 8.736283714871785 27.166622034719296 4.869748720782024 1 -1 0
421 1 1 14.21228230502732 25.4035603326948 4.600767198911811 1 -1 0
1745 0 2 4.747476696930773 6.144587667050543 0.7389686016757101 2 6 1
1910 0 2 24.833088682998476 1.1049200769342866 1.5579892767412031 3 0 -3
1735 0 2 27.09982881981075 5.688156113872871 8.924549761154639 -1 -2 4
1200 0 2 2.3046379919063824 26.02121690611765 28.72684591889235 1 1 -5
1432 0 2 24.51672683805762 5.268059057676127 2.954775868977591 -2 -2 3
1524 0 2 29.814008963306964 6.243639645560952 10.32456771261612 1 2 1
1682 0 2 3.474931686258193 28.658661456809458 3.7840763186758775 0 1 0
613 1 1 26.10293124989556 7.938204251980999 5.744443214447616 1 0 0
1411 0 2 3.3971103723706078 7.9543999693648235 11.711566236877616 6 -1 -2
1351 0 2 23.068666842433096 16.89883608976072 10.247607674347076 -4 1 1
604 1 1 25.574108788204352 10.05923520386475 4.783779546262158 1 0 0
605 1 1 24.686390913002143 10.3513127990376 4.696323132671291 1 0 0
1583 0 2 7.038760991173433 10.672423435388868 8.75341214593325 1 2 0
1978 0 2 1.6288922068505787 9.9464744459275 8.37839939074376 2 0 1
544 1 1 5.117118239774795 12.33086028774397 5.126728163201079 2 0 0
594 1 1 25.74169939091639 11.317763982472783 4.341598682886552 1 0 0
595 1 1 26.10098700106065 12.116842867999612 4.716463294403107 1 0 0
548 1 1 3.1647595258938344 13.371099550115263 5.618777657602658 2 0 0
545 1 1 4.554463916101287 12.78622791195596 5.787223391997103 2 0 0
593 1 1 24.953292279001936 12.003875327174734 4.2827669207953045 1 0 0
557 1 1 0.3217428125790577 15.78717002185656 3.6593902974065333 2 0 0
556 1 1 1.1638277725159152 16.086507025215997 4.063278514514173 2 0 0
1471 0 2 11.155314725451666 21.480640317365065 6.479745304819397 2 2 0
589 1 1 24.40951581359595 14.71988483625107 3.55391925477861 1 0 0
1529 0 2 25.759586944791163 12.861459392970904 10.884352244756796 1 -2 -2
588 1 1 24.48476716695547 15.650044704924992 3.660056045309036 1 0 0
587 1 1 24.879076199893927 16.488418344816342 3.5773314406492407 1 0 0
133 1 1 14.862856281026255 20.500982776347403 4.4220171744314865 0 -1 0
132 1 1 15.202625538041683 21.269839167377928 4.770081414351762 0 -1 0
1314 0 2 29.18596103637974 25.26376200622644 4.402050642284743 2 -3 0
317 1 1 23.82189161761037 19.772167813234006 4.007233044011892 0 -1 0
1364 0 2 12.621795338214563 21.841444009302176 3.7478588746594013 -1 -3 0
1602 0 2 12.732305010401955 25.141159942164748 6.013819901904572 3 0 2
1037 0 2 9.661098882191228 25.826582471310942 3.565303222137774 -1 1 -2
1908 0 2 27.695412765427992 24.724771431812147 6.123236611197396 -4 0 -4
1098 0 2 28.60824166285009 23.581094185760843 29.833763292688825 4 3 -3
1634 0 2 15.114885551309941 25.608804424289687 26.844140090057326 1 1 3
1107 0 2 28.360713805063853 17.72436006243198 4.004598157616563 5 -7 2
1129 0 2 1.1492193593915043 23.113928889205184 25.584784836665015 0 0 -3
1776 0 2 29.038780083741386 2.8080515360442755 15.05670424967262 1 2 2
1697 0 2 3.787837695588775 27.989071780805816 9.513314990234965 6 0 -3
406 1 1 8.401599064207938 28.480087709679 5.297174905323652 1 -1 0
422 1 1 15.118773057489614 25.594215363860542 4.581156432794166 1 -1 0
405 1 1 9.150264777237602 28.58856478796616 4.644330581221817 1 -1 0
1469 0 2 17.729071824747127 8.16194468056026 4.3547982047047755 5 4 -2
1486 0 2 20.111349453420758 28.410299610085676 2.7246802577378793 0 -3 -1
1268 0 2 24.4635591847211 25.91276141054413 4.912890602606384 -1 -1 0
1986 0 2 1.1960491617078128 29.007026316424522 10.8012833269829 -3 -5 1
1373 0 2 18.585615190238418 25.792835157321033 3.7829854997135115 -2 1 3
1959 0 2 29.631980593833642 11.637990813227438 9.342020195207706 -4 -1 -1
1502 0 2 11.623004950333742 9.461679474632206 9.612232201292544 1 2 -1
1487 0 2 20.546283564116727 3.089414296979718 7.936118134550493 1 2 1
1042 0 2 28.372955958793796 2.1926199360794243 3.6929506065599518 0 3 4
1380 0 2 15.174342932128596 29.527180610450188 4.034250929074793 1 5 2
1732 0 2 9.976534516795487 16.638921627102537 2.864319323331117 3 0 -1
1154 0 2 19.848143349550742 3.4250699441834342 1.6603655649188163 -2 0 2
1408 0 2 0.04398735494663318 1.238027011705415 5.4592082346732695 -1 0 -1
614 1 1 25.15605155302455 8.149712613534717 5.636479070652522 1 0 0
1228 0 2 29.484182593285887 4.944436175939368 3.201527509831019 0 -1 4
616 1 1 24.08789124535109 8.362120331631328 5.905719180727078 1 0 0
615 1 1 24.67863465620993 7.769846745663343 6.375996824531992 1 0 0
617 1 1 23.11866165620912 8.22402697143874 5.940882014493617 1 0 0
1050 0 2 1.03660283850332 9.25411039670365 10.58932241855128 0 0 -1
1962 0 2 7.255687408694823 8.695585264392559 0.6891553062930601 -1 0 -5
603 1 1 25.422312195090637 10.672613906025951 5.460906998668384 1 0 0
1479 0 2 3.72663927283938 12.736204123370058 12.943757925831417 -3 0 2
602 1 1 25.084536970472353 11.438309418890146 5.969039728698314 1 0 0
601 1 1 24.66124630408177 10.811888781635123 6.664573820660541 1 0 0
598 1 1 23.742021061015652 12.586904000586369 5.789561114873674 1 0 0
543 1 1 5.965788481382451 12.755428096026579 4.9504642620999855 2 0 0
596 1 1 25.305031155250205 12.648091953609962 5.018338923281096 1 0 0
597 1 1 24.721755102025934 12.4796175515745 5.7834114580568645 1 0 0
1039 0 2 24.205528737477554 22.893724417445554 25.406801301479614 -3 -2 -2
1056 0 2 2.678555755963681 23.36510668552447 9.592889487298462 -6 -3 -3
1104 0 2 8.16053103801376 19.233854748997057 7.55188449994565 6 3 1
127 1 1 15.872472519499167 23.586457543979993 4.493648046112382 0 -1 0
130 1 1 14.515184474538444 22.64425136477242 4.041794569115004 0 -1 0
1949 0 2 10.523767832397025 23.564581789005796 9.758241206513159 -3 0 3
131 1 1 15.227924132619234 22.009281435275565 4.133770246022197 0 -1 0
318 1 1 24.53842291758003 20.015626686829428 4.6485930926789765 0 -1 0
1390 0 2 19.962731380033215 20.952728576215925 4.876895394561665 5 1 1
1271 0 2 20.135703132164497 23.917538841386545 28.241634696826775 -4 1 -3
1692 0 2 23.828020423415655 16.706512891356635 5.406827062737859 -4 0 2
1881 0 2 13.245433011335463 28.291550521022113 10.476125123472453 4 -4 -1
1079 0 2 0.9306534468415942 27.68351478350228 5.2651636286343635 1 -3 -1
1638 0 2 22.728517191783013 26.72005239918718 7.538130145112462 1 2 4
1340 0 2 23.65212664721411 29.89996080785979 7.848792311918128 -3 -5 2
1947 0 2 0.9812478277721107 26.285462952069633 6.864429019853991 2 0 0
423 1 1 15.610343660698557 26.175940335102066 5.225798567082221 1 -1 0
404 1 1 9.390395106340089 28.335862745383963 5.562473523380267 1 -1 0
1955 0 2 17.672729522885348 27.412429781298123 3.066301704136259 3 -1 -1
1120 0 2 2.8029987492237263 7.904965980648241 5.5337768447242155 -2 0 -5
1860 0 2 11.941431995691806 11.69537205065928 4.019606011487324 -3 -2 0
1790 0 2 21.92812842715839 6.8624698696002735 8.937292159273296 4 0 -4
1224 0 2 18.079955315463945 5.941980452551666 1.3241713039087035 0 2 -3
1607 0 2 19.576183929755697 7.219176120688424 8.945238022592061 -1 -2 4
1784 0 2 15.4236109105472 0.6342617077918213 8.017033786556823 0 -4 4
618 1 1 22.92205841192774 7.631393096950032 6.71362999368717 1 0 0
1262 0 2 12.4973563337679 11.817706631816417 5.454942677769206 1 -3 0
599 1 1 23.941751418437814 11.708266239990728 6.165938562599561 1 0 0
1775 0 2 25.109080124604464 1.1723991805950762 11.036328699260125 1 -10 1
542 1 1 6.6722280138124574 13.369695819947685 5.414938915713547 2 0 0
541 1 1 6.084922188889281 14.063106788122806 5.618781809824279 2 0 0
600 1 1 24.347889382219854 11.676795542974379 7.0653711351615405 1 0 0
1703 0 2 9.548960201313415 12.559965490508912 2.9915809289591575 4 3 3
1180 0 2 24.36427301425197 12.55969819206012 29.907764189327263 3 3 -1
1817 0 2 15.755414552195196 20.316197809233195 8.517835590067675 3 -1 3
128 1 1 14.973895584862023 23.748398536245016 4.7177126936624925 0 -1 0
1816 0 2 2.8637139433080305 24.695766041928714 6.556667066496354 2 0 4
129 1 1 14.497390672706992 22.935039589652824 4.961830355911171 0 -1 0
324 1 1 25.001030508156237 22.274527241864163 6.900438070540026 0 -1 0
325 1 1 25.906524556267694 22.61556390432497 7.001219266744713 0 -1 0
1705 0 2 18.013562698381428 20.3297784465866 11.136843538008344 -3 1 -4
319 1 1 23.781044074668827 19.96147890782203 5.269115487430676 0 -1 0
1169 0 2 10.215829846609743 21.75803383267316 8.995115108190678 -2 -2 -2
426 1 1 15.691816987400685 27.99218676320267 6.8189912547238025 1 -1 0
427 1 1 16.147777795951093 28.835268213533784 6.761860470473485 1 -1 0
1944 0 2 27.592530600396625 29.366960082787266 7.342942207562486 -2 2 5
1679 0 2 8.13754188747788 19.062716976799713 12.931734184114575 1 -2 4
425 1 1 15.81251284742004 27.760354620794757 5.908291378966152 1 -1 0
1933 0 2 22.697586636647276 25.648332444577093 10.270486097229977 0 -4 4
424 1 1 15.604495096862363 26.806571573296864 5.989923106790637 1 -1 0