ITEM: TIMESTEP
0
ITEM: NUMBER OF ATOMS
100
ITEM: BOX BOUNDS pp pp pp
-2.5000000000000000e-01 1.0250000000000000e+01
0.0000000000000000e+00 1.0000000000000000e+01
0.0000000000000000e+00 1.0000000000000000e+01
ITEM: ATOMS id type x y z
14 1 1.12087 6.42665 0.664804
33 1 6.42882 6.07291 0.196485
17 1 9.73493 7.01019 0.185318
16 1 0.0378286 7.60995 0.421609
24 1 6.89308 8.38512 0.0821888
81 1 5.75436 4.29101 0.719056
34 1 6.2547 6.25627 1.1271
18 1 9.61859 6.34914 0.948782
15 1 0.214401 6.78768 0.986947
19 1 9.39177 7.12464 1.40308
39 1 3.72264 7.69519 1.17067
22 1 7.10008 7.68768 1.18989
41 1 2.23453 8.54696 1.09931
40 1 3.2161 8.5676 1.15554
38 1 4.66479 7.92834 1.36791
23 1 6.93785 8.6242 0.989789
83 1 4.98581 4.80905 2.12148
82 1 5.74964 4.34071 1.68565
35 1 5.83185 7.03065 1.43288
21 1 7.45377 6.91588 1.6827
20 1 8.42598 7.15252 1.68703
42 1 1.67981 7.97829 1.64501
36 1 6.04672 7.89554 1.73921
90 1 2.43144 2.34857 2.3407
89 1 1.93747 3.22671 2.56879
46 1 0.735804 5.56458 2.66816
85 1 3.48702 5.63909 2.63512
84 1 4.45139 5.26852 2.84402
43 1 1.61977 7.71431 2.57596
37 1 5.17809 7.96436 2.1846
97 1 0.53535 1.64217 2.91166
96 1 1.55368 1.72381 2.8715
91 1 2.71335 2.0134 3.19927
98 1 -0.217927 2.15919 3.38095
95 1 1.54584 2.44582 3.4856
88 1 2.66318 3.5936 3.02876
87 1 2.75865 4.54667 3.147
86 1 2.56955 5.5589 2.97176
45 1 0.345298 6.4222 2.98378
44 1 1.28809 6.94978 2.98547
94 1 1.10194 1.8089 3.95615
92 1 2.82414 2.5285 3.97924
99 1 9.84547 2.63257 4.13159
47 1 0.70329 5.66418 3.64228
93 1 2.00949 2.00802 4.30541
100 1 0.279112 2.67304 4.39176
48 1 -0.0584694 5.62399 4.3077
49 1 0.847355 5.30512 4.79543
50 1 1.34102 6.10271 4.89908
68 1 2.77274 9.48382 4.92569
69 1 3.48454 0.12774 5.37024
70 1 3.26489 1.07333 5.2827
51 1 2.09833 5.95883 5.45666
67 1 1.94338 9.24517 5.51102
71 1 2.84453 1.80943 5.78387
72 1 3.5824 2.23497 6.35008
52 1 1.7776 5.56689 6.25904
66 1 2.18678 9.08612 6.39967
64 1 1.4086 0.145861 6.71922
74 1 4.13426 3.16561 6.94109
56 1 2.3028 3.66523 6.94281
55 1 2.9551 4.45967 7.10449
65 1 1.64854 9.32099 7.12293
63 1 1.42369 0.27944 7.71514
62 1 2.0722 0.968221 7.48607
73 1 3.5971 2.42584 7.35223
75 1 3.77275 3.44867 7.78926
54 1 2.07357 4.86027 7.16951
53 1 1.48126 5.59854 7.18452
10 1 0.992026 7.06291 7.85354
6 1 2.37433 8.55896 7.51128
4 1 3.98222 8.23137 7.54395
60 1 0.952399 2.14104 8.3836
61 1 1.31601 1.43814 7.88279
57 1 2.08484 3.45016 7.88025
30 1 6.52896 5.32245 8.0417
11 1 0.792371 6.11447 8.07725
29 1 6.27816 6.25899 8.08095
7 1 2.40962 7.98719 8.27192
5 1 3.22108 8.60309 8.00953
3 1 4.49444 8.88962 8.02447
2 1 5.307 9.49133 7.97167
59 1 0.886772 3.05863 8.74224
76 1 3.29799 3.09778 8.59993
77 1 4.25716 2.97086 8.79712
58 1 1.63467 3.65902 8.67995
78 1 3.91679 3.877 8.94768
31 1 7.29248 5.16428 8.61174
12 1 0.972214 5.85455 8.9922
28 1 6.60136 6.77593 8.81053
9 1 0.713306 7.17025 8.75279
8 1 1.60242 7.69746 8.69175
26 1 5.56296 7.97413 9.185
25 1 6.45763 8.57377 9.24533
1 1 5.68863 9.29984 8.85294
79 1 4.74487 4.20371 9.30543
80 1 5.26069 4.67041 9.95656
13 1 1.45278 6.06335 9.80309
32 1 6.76513 5.73263 9.38431
27 1 5.84532 7.06711 9.34813
ITEM: TIMESTEP
1000
ITEM: NUMBER OF ATOMS
100
ITEM: BOX BOUNDS pp pp pp
-2.5000000000000000e-01 1.0250000000000000e+01
0.0000000000000000e+00 1.0000000000000000e+01
0.0000000000000000e+00 1.0000000000000000e+01
ITEM: ATOMS id type x y z
14 1 9.10066 8.6319 1.37193
33 1 5.90365 7.56246 1.84949
17 1 7.66752 8.36097 2.74325
16 1 8.38772 8.74678 2.14735
24 1 7.51018 0.707234 1.74412
81 1 4.32317 2.14169 8.39193
34 1 5.39826 7.38931 2.69442
18 1 7.61819 9.22053 2.30098
15 1 9.3714 8.71289 2.32293
19 1 7.33486 0.0110946 2.71393
39 1 5.32012 5.98689 2.28368
22 1 7.84186 1.23554 2.75604
41 1 4.28789 6.78203 2.98757
40 1 4.35045 6.25125 2.26297
38 1 6.28127 5.91955 2.32676
23 1 7.69108 1.6102 1.90919
83 1 4.39028 0.705953 8.98159
82 1 4.37782 1.16446 8.11565
35 1 5.50226 6.51879 3.07287
21 1 8.07927 0.927815 1.90011
20 1 8.17028 0.0476473 2.22796
42 1 3.61318 6.48262 3.6238
36 1 6.15228 6.2192 3.7338
90 1 3.59631 9.75021 2.8035
89 1 4.03338 0.122029 1.94056
46 1 2.56057 5.21693 4.05141
85 1 4.69369 0.599216 0.749804
84 1 4.95378 0.697517 9.7635
43 1 3.6469 5.58965 3.9958
37 1 6.47791 6.68313 2.96211
97 1 1.32625 0.599031 1.66847
96 1 1.03095 0.658674 2.61607
91 1 3.12672 0.525325 3.17037
98 1 0.883709 0.347113 0.80732
95 1 1.07841 1.57016 2.79921
88 1 4.81764 0.68816 2.06094
87 1 5.24945 0.364013 1.28992
86 1 4.61819 1.10783 1.56215
45 1 3.52647 5.43626 4.11956
44 1 4.03181 5.64172 4.88406
94 1 1.38 0.889285 3.38369
92 1 2.63456 1.33251 2.91131
99 1 1.72575 0.58169 0.386542
47 1 1.99399 5.17221 4.79485
93 1 1.80628 1.14378 2.5034
100 1 1.9605 9.90713 9.77991
48 1 2.08243 4.5016 4.04139
49 1 1.71506 4.01878 3.2748
50 1 0.763712 4.0788 3.08649
68 1 1.85389 3.48891 6.91968
69 1 2.75763 3.79469 6.69476
70 1 3.30761 3.42158 7.35816
51 1 0.826148 4.45427 3.95521
67 1 2.2669 3.10664 6.10753
71 1 3.81127 2.6945 7.10592
72 1 3.45333 1.93208 7.65644
52 1 0.657231 5.39275 3.8016
66 1 1.83133 2.28059 6.17257
64 1 0.729682 1.49578 5.68053
74 1 4.78176 2.17124 7.23668
56 1 10.0057 4.00618 5.97332
55 1 0.0548643 3.4718 5.32168
65 1 1.67889 1.4035 5.80549
63 1 -0.0481903 0.941432 5.48922
62 1 0.459167 0.614058 6.36401
73 1 3.89558 2.46835 6.96715
75 1 4.64064 3.15017 7.49782
54 1 0.67367 3.97425 4.86524
53 1 0.477257 4.44229 4.0598
10 1 1.52385 8.65458 0.578641
6 1 4.07915 8.88944 8.25297
4 1 2.68296 8.07593 7.22875
60 1 -0.00239352 2.35333 6.40442
61 1 0.292374 1.49896 6.71698
57 1 9.76643 3.83321 5.02844
30 1 6.05045 7.81084 1.10727
11 1 0.639327 9.03452 0.450083
29 1 5.61514 8.6764 1.08516
7 1 3.08662 8.98942 8.49533
5 1 3.29926 8.53201 7.86562
3 1 1.72945 8.17519 7.41576
2 1 1.166 8.9883 7.36867
59 1 10.2142 3.2069 6.70534
76 1 5.55926 3.28162 7.28811
77 1 5.87626 3.13267 8.18226
58 1 10.1854 3.41171 5.75132
78 1 5.19291 3.53365 8.71639
31 1 5.16333 7.94299 1.41635
12 1 0.391767 8.92582 1.41307
28 1 6.38423 9.05085 0.719199
9 1 2.40043 8.44485 0.243961
8 1 2.83388 8.78135 9.41098
26 1 7.06156 9.46369 0.979539
25 1 6.79755 0.37994 1.18
1 1 2.02364 8.67416 7.77085
79 1 5.64445 2.64584 8.81
80 1 5.25836 1.98495 8.24917
13 1 9.96257 9.03996 1.58098
32 1 6.14588 7.96449 1.00004
27 1 6.4732 9.35776 1.68214
ITEM: TIMESTEP
2000
ITEM: NUMBER OF ATOMS
100
ITEM: BOX BOUNDS pp pp pp
-2.5000000000000000e-01 1.0250000000000000e+01
0.0000000000000000e+00 1.0000000000000000e+01
0.0000000000000000e+00 1.0000000000000000e+01
ITEM: ATOMS id type x y z
100 1 0.20172 1.08709 0.10728
99 1 -0.0738852 2.01691 0.326799
95 1 2.31943 1.84513 0.276829
97 1 1.20472 2.43229 0.469492
8 1 0.10883 7.89042 0.0481387
85 1 4.52313 8.58439 0.168199
98 1 0.343577 2.53015 1.03626
96 1 2.05306 2.5168 0.89804
9 1 0.278835 7.77855 1.0073
17 1 0.375002 0.606907 2.01879
19 1 10.213 0.512319 1.91552
48 1 2.84274 3.31942 1.8516
10 1 10.2371 7.97526 1.74222
14 1 0.399968 9.34707 2.10727
16 1 1.34176 0.60473 2.33665
20 1 9.67884 0.454772 2.70993
18 1 -0.118559 1.30401 2.37718
49 1 2.28833 3.11959 2.63385
46 1 3.10768 2.94431 2.82429
44 1 4.8767 3.03259 2.56395
50 1 2.73842 3.95709 2.63027
47 1 2.42514 3.57291 2.68659
53 1 0.936467 5.66028 2.58045
55 1 9.74563 5.55192 2.68759
11 1 0.160332 8.50184 2.50821
12 1 0.531229 9.29934 2.84302
15 1 0.996947 9.81904 2.69907
13 1 10.052 9.41661 2.6556
21 1 8.88545 0.577027 3.23965
22 1 7.94316 0.90445 3.10841
23 1 7.26959 1.4997 3.54842
43 1 4.25597 2.70059 3.22871
45 1 4.07915 3.03677 3.09112
52 1 1.61482 4.96375 2.9598
51 1 2.6103 4.82794 2.89629
56 1 8.9173 5.3666 3.13496
54 1 0.0851424 5.94196 2.88565
60 1 0.271709 3.24319 3.97471
42 1 4.77636 3.4593 3.61507
61 1 0.330382 4.20468 4.21405
41 1 5.19394 4.1147 4.10526
59 1 10.1293 3.87552 4.25961
40 1 4.50233 4.76305 3.92632
58 1 10.2482 4.72395 3.82255
57 1 9.63877 5.3904 3.75374
37 1 5.30207 6.33455 4.28144
29 1 6.16598 0.132132 4.82464
24 1 6.97025 1.85478 4.36513
27 1 7.15732 1.54983 4.90548
25 1 7.84564 1.67952 4.81804
39 1 3.8748 5.37096 4.40627
38 1 4.40521 6.1664 4.57541
35 1 6.28575 7.26143 4.64743
33 1 5.72445 7.90935 4.86305
34 1 6.65716 8.07302 4.98676
32 1 5.43811 8.77251 4.45962
30 1 5.60523 9.34411 4.61237
28 1 6.99085 0.580341 5.09575
26 1 7.8069 0.827168 5.21291
62 1 0.823982 4.45661 5.0081
65 1 1.02756 4.95919 5.34186
66 1 1.84371 4.37988 5.43596
64 1 1.17159 5.87269 5.54995
36 1 5.58473 6.74356 5.14005
31 1 4.91072 8.84017 5.2177
67 1 1.66039 3.95486 6.38048
68 1 2.56518 3.80883 6.11267
63 1 1.24181 4.9147 5.81123
72 1 3.34201 2.97803 7.10713
71 1 2.78169 3.78441 7.1084
69 1 2.75561 3.97794 7.03392
77 1 3.62275 0.227572 7.78578
75 1 3.80133 1.15524 7.76122
74 1 2.94135 1.45549 7.46825
73 1 3.23674 2.31859 7.81258
1 1 -0.128007 6.87591 7.83283
79 1 4.9175 9.58829 7.60678
76 1 4.46029 0.600024 8.21646
78 1 4.56252 0.374895 8.12458
70 1 3.01617 4.2469 7.97464
2 1 -0.187841 7.72621 8.19175
6 1 0.890632 8.15501 8.47822
81 1 5.75897 8.16727 8.21794
80 1 5.17318 8.98035 8.25677
93 1 3.22319 1.64532 9.0575
4 1 10.0649 7.03765 9.11506
5 1 0.150826 7.78599 8.91238
7 1 0.277672 7.74086 9.13938
83 1 4.799 7.54992 8.64454
82 1 5.55641 7.81939 9.10117
3 1 9.48804 7.72052 8.7648
90 1 4.6073 9.95731 9.10424
89 1 5.40161 0.0202221 9.55941
92 1 4.05854 1.4141 9.44543
91 1 4.81063 0.836884 9.46236
94 1 2.41529 2.01702 9.3706
84 1 4.87487 7.83457 9.61675
87 1 4.68242 8.52403 9.92276
86 1 3.87938 8.94857 9.40446
88 1 4.66568 9.47359 9.87487
ITEM: TIMESTEP
3000
ITEM: NUMBER OF ATOMS
100
ITEM: BOX BOUNDS pp pp pp
-2.5000000000000000e-01 1.0250000000000000e+01
0.0000000000000000e+00 1.0000000000000000e+01
0.0000000000000000e+00 1.0000000000000000e+01
ITEM: ATOMS id type x y z
100 1 3.00887 1.993 7.82872
99 1 3.7427 2.46435 8.28921
95 1 3.70277 1.36703 8.66251
97 1 3.39061 2.74511 7.98798
8 1 8.33639 8.22072 2.16905
85 1 3.95189 8.10306 8.51556
98 1 3.27798 3.09355 8.86274
96 1 3.99454 2.32135 8.56138
9 1 9.14425 7.70704 2.27411
17 1 9.86059 9.16249 4.26696
19 1 8.59206 9.58983 4.31639
48 1 4.06499 5.70945 2.28953
10 1 8.8248 7.77975 1.37983
14 1 9.63581 0.00714708 3.04451
16 1 0.101223 8.85791 3.8229
20 1 8.21465 0.306351 4.75918
18 1 9.45562 9.90416 4.68674
49 1 3.3079 5.58136 1.69906
46 1 5.69283 6.01274 3.00626
44 1 6.49922 5.56481 3.3694
50 1 2.59135 6.23327 1.51957
47 1 4.81384 6.22074 2.5424
53 1 0.819445 4.99584 1.2363
55 1 1.18942 6.13536 1.9517
11 1 8.82776 8.59555 1.90012
12 1 8.27085 9.24864 2.30903
15 1 -0.245778 9.22782 3.0046
13 1 9.10274 9.72835 2.33181
21 1 8.42842 9.76389 5.49918
22 1 8.36852 0.319639 4.78088
23 1 7.66619 0.137322 5.38159
43 1 6.35708 5.06331 4.17431
45 1 6.19306 6.49031 3.61305
52 1 1.4582 5.67293 0.890163
51 1 2.04393 6.40369 0.727265
56 1 1.59704 5.32584 2.26884
54 1 0.606187 5.40206 2.15576
60 1 2.74981 5.1319 2.94022
42 1 5.54961 4.77866 4.59445
61 1 2.94837 5.96793 3.35856
41 1 5.45169 5.47845 5.34145
59 1 2.1609 4.57583 2.44719
40 1 4.53091 5.76128 5.0841
58 1 2.55262 5.25977 2.9207
57 1 1.94319 6.04359 2.73642
37 1 5.61877 6.02163 6.52764
29 1 7.89332 8.91602 6.5841
24 1 8.12575 0.394492 6.18167
27 1 8.04532 9.10678 6.64538
25 1 7.76512 0.328119 7.14045
39 1 4.48834 6.39196 5.81746
38 1 5.33318 6.82256 6.0737
35 1 6.94504 5.64188 5.9959
33 1 8.3221 6.66127 6.15203
34 1 7.86679 5.91053 5.86139
32 1 8.87565 7.35997 6.58977
30 1 8.19476 8.20636 5.95863
28 1 8.47945 8.91819 7.47003
26 1 8.57396 9.94453 6.81058
62 1 2.66098 6.08185 4.3292
65 1 0.691729 5.61252 5.4394
66 1 0.374645 4.85262 4.90898
64 1 1.58914 5.83503 5.59313
36 1 6.41084 6.4128 6.3222
31 1 8.1025 7.22084 6.02181
67 1 1.17898 4.78039 4.34123
68 1 1.05833 4.33057 5.21733
63 1 2.49681 6.04727 5.30946
72 1 1.30744 2.67862 6.62551
71 1 2.00271 1.88383 6.30542
69 1 1.24263 3.60502 5.8488
77 1 1.95828 8.90499 5.10944
75 1 2.0517 0.405791 5.12118
74 1 1.9534 1.18383 5.68606
73 1 1.88571 2.05501 6.14693
1 1 7.35349 5.43663 0.270786
79 1 1.99724 9.60637 6.65484
76 1 2.59371 9.6241 5.12585
78 1 2.38763 9.38611 5.84444
70 1 1.68483 2.82349 6.15877
2 1 7.30427 6.30485 0.615186
6 1 7.36534 7.80797 1.48892
81 1 3.58427 8.61114 7.20088
80 1 2.81959 9.11203 6.87902
93 1 3.01859 0.871043 8.4329
4 1 8.08466 6.30015 0.528245
5 1 7.83084 7.08069 1.0235
7 1 8.05832 8.47355 1.28205
83 1 4.62894 8.52898 8.10688
82 1 4.55805 8.83053 7.13502
3 1 7.65338 6.93564 9.94431
90 1 4.23546 0.0848389 9.33107
89 1 3.28986 9.86781 9.099
92 1 2.55226 1.02339 9.30631
91 1 3.2654 0.352844 9.53812
94 1 3.67106 1.11933 7.7365
84 1 4.75176 7.63588 8.35836
87 1 4.05722 9.40294 9.18601
86 1 4.5653 8.78975 8.64995
88 1 3.42014 9.02147 8.46659
ITEM: TIMESTEP
4000
ITEM: NUMBER OF ATOMS
100
ITEM: BOX BOUNDS pp pp pp
-2.5000000000000000e-01 1.0250000000000000e+01
0.0000000000000000e+00 1.0000000000000000e+01
0.0000000000000000e+00 1.0000000000000000e+01
ITEM: ATOMS id type x y z
1 1 6.91196 6.68408 2.29492
2 1 6.19616 6.57102 1.67574
4 1 6.27743 7.18203 1.29611
53 1 4.9495 5.86961 0.828778
52 1 4.51464 6.66248 1.23141
51 1 4.6435 7.54076 1.18642
5 1 7.21946 7.53781 1.33316
10 1 7.62361 7.98119 3.7635
7 1 7.56215 8.71902 2.77579
54 1 5.5082 5.29553 1.31628
49 1 3.77743 8.20074 1.71563
55 1 5.55526 4.60919 2.07161
50 1 3.89606 7.20847 1.69364
6 1 7.48431 8.30699 1.83207
11 1 6.70192 8.34804 3.90659
59 1 2.77748 5.85939 1.87431
56 1 4.71148 4.41346 2.56714
48 1 2.88457 8.2194 2.03847
57 1 3.78823 4.529 2.40839
47 1 2.76918 7.99478 2.9419
9 1 8.15197 7.68508 2.95386
8 1 8.06915 8.23672 2.15581
12 1 7.39434 8.082 4.51474
13 1 6.86574 8.61963 5.15865
58 1 2.96975 4.93357 2.11027
60 1 2.30119 5.09445 1.48653
44 1 4.54367 7.62287 4.08969
61 1 2.05178 4.80111 2.34017
46 1 3.54806 7.53779 3.36291
15 1 6.6296 8.66536 5.68821
14 1 6.10298 8.0484 5.22657
43 1 4.90346 6.69812 4.01894
45 1 3.79298 8.15993 4.07053
16 1 6.78737 9.39681 5.10545
20 1 8.67368 9.25849 6.14576
22 1 -0.0925933 8.90007 6.77725
66 1 1.38147 4.42319 3.7922
67 1 1.9444 3.95004 4.45415
42 1 5.7218 6.33872 4.32128
62 1 2.72686 5.01445 3.07093
17 1 6.80861 0.266106 5.42471
19 1 8.09037 9.8327 5.73608
18 1 7.34952 0.103612 6.25423
75 1 0.458698 2.6577 5.07983
23 1 0.469361 8.56862 7.43975
74 1 0.0087328 3.02079 5.8118
68 1 1.23334 4.18287 5.03967
65 1 1.65446 5.27925 3.45813
40 1 7.01082 6.92685 5.5174
41 1 6.51398 6.50711 4.82888
64 1 2.49378 4.79385 3.41889
63 1 1.96223 4.63335 2.60337
77 1 1.98045 2.70999 5.84645
76 1 0.973974 2.80914 5.93045
21 1 9.5794 9.07651 6.27477
24 1 1.00723 7.77163 7.69069
71 1 0.747225 2.3026 3.09244
73 1 0.189303 2.94103 4.82656
70 1 1.03448 2.60306 3.92993
69 1 1.13172 3.45128 4.43854
35 1 8.46084 6.18649 6.78159
39 1 7.59627 7.62269 5.55142
34 1 7.98458 5.67494 6.15924
38 1 8.29806 8.139 5.99733
36 1 7.92362 6.89836 7.05406
33 1 8.11472 4.76774 6.6275
31 1 8.24501 5.74829 8.07054
30 1 9.00862 6.26758 8.4272
78 1 1.3263 1.99468 5.65958
25 1 0.066254 7.33253 8.05505
72 1 0.709151 2.67201 3.9328
37 1 8.1777 7.17958 6.19906
32 1 7.84435 5.27754 7.40052
80 1 0.15457 1.05993 5.61637
82 1 0.676666 9.46656 5.69802
29 1 9.75933 5.65355 8.4163
27 1 10.162 6.22402 7.66358
79 1 1.11479 1.05288 5.75505
26 1 -0.182202 7.01113 7.1691
94 1 3.27951 0.721397 8.61316
100 1 7.0191 0.674863 7.04052
81 1 -0.0518459 0.094732 5.53243
28 1 9.55703 6.61259 8.34531
93 1 2.70905 9.96121 8.56057
97 1 5.32791 2.04691 7.94937
99 1 6.28232 1.1787 7.38628
84 1 2.54167 9.58109 5.27574
85 1 2.89555 9.93293 6.1177
83 1 1.66741 9.57941 5.67565
88 1 2.38742 8.78603 6.59156
92 1 2.17775 9.19159 8.58222
95 1 3.89514 1.21373 8.02847
96 1 4.7399 1.45207 8.33125
98 1 6.17275 1.50803 8.25573
86 1 2.1368 9.35887 6.321
89 1 3.00636 8.25329 7.07348
87 1 2.18058 9.42933 7.25089
91 1 3.00259 8.66644 8.66116
90 1 3.50367 8.7218 7.74284
3 1 6.71083 7.16764 2.19207
ITEM: TIMESTEP
5000
ITEM: NUMBER OF ATOMS
100
ITEM: BOX BOUNDS pp pp pp
-2.5000000000000000e-01 1.0250000000000000e+01
0.0000000000000000e+00 1.0000000000000000e+01
0.0000000000000000e+00 1.0000000000000000e+01
ITEM: ATOMS id type x y z
54 1 2.97575 5.84299 1.54972
53 1 3.27709 6.6827 1.8788
52 1 4.02147 6.72582 2.48072
51 1 4.88304 7.1775 2.14883
4 1 9.39499 8.32905 4.04546
5 1 9.12248 7.65584 4.68487
58 1 2.69666 5.02634 0.458115
55 1 3.58017 5.3137 2.10727
60 1 3.5346 4.23125 0.180961
59 1 2.76255 4.61332 9.6019
2 1 9.68781 8.26084 4.48662
50 1 4.85583 7.51223 3.04223
48 1 3.98807 9.15721 3.18367
49 1 4.45339 8.35012 2.77326
6 1 8.34688 8.22741 4.64526
61 1 3.03729 3.42341 0.251721
63 1 2.77607 2.94393 9.47755
57 1 3.47752 4.38654 0.516551
56 1 3.61542 5.19295 1.11974
1 1 10.2061 8.46816 3.6903
3 1 8.80931 8.83878 4.65106
8 1 7.01348 8.88603 4.57058
7 1 7.78645 8.68053 3.96829
71 1 -0.150279 3.20963 2.73164
62 1 2.31889 3.75855 9.68253
64 1 2.05374 3.22807 0.0700104
65 1 1.65935 3.25573 0.929275
46 1 4.42469 9.79535 4.66715
9 1 6.91026 9.37774 3.74758
47 1 3.92471 9.17757 4.12865
70 1 0.459045 3.61058 2.1285
72 1 0.209572 3.72728 3.48515
66 1 1.37429 4.06776 1.3721
43 1 5.19739 8.03299 4.93709
44 1 4.82188 8.80082 5.40907
45 1 4.94367 9.71065 5.50945
11 1 7.46684 0.184703 4.23075
10 1 7.05418 9.31762 4.67891
73 1 9.81725 3.89496 3.61464
69 1 10.1719 3.77827 1.70534
67 1 1.06566 3.43251 0.664321
42 1 5.85421 7.41418 5.34363
41 1 6.5515 6.80762 5.60879
12 1 7.3631 0.79768 4.9458
81 1 0.448647 0.999398 6.70333
17 1 8.77025 9.25051 7.62246
80 1 0.323224 1.3777 5.85876
78 1 0.148241 2.07684 4.46366
75 1 9.96697 3.53292 5.52422
68 1 0.531336 3.91801 1.36652
40 1 6.29082 6.56084 6.51446
39 1 5.38409 6.46625 6.24502
14 1 7.53346 1.27591 6.41363
13 1 8.02282 0.766977 5.74419
82 1 -0.113288 0.968478 5.96488
83 1 0.360876 0.594205 5.24813
84 1 0.369765 9.70558 5.53977
16 1 8.28454 9.62606 6.89144
18 1 7.86463 9.07957 7.36082
79 1 0.703678 2.05886 5.32783
76 1 9.82709 3.41377 4.54594
77 1 -0.156794 2.73945 5.05917
74 1 9.87612 3.48055 4.4894
34 1 8.73013 3.88075 6.35335
37 1 6.71212 5.8608 6.271
38 1 6.32716 6.74646 6.20355
15 1 7.82215 0.477798 6.87276
20 1 8.50241 7.9444 7.6326
21 1 9.27995 7.73246 7.1069
86 1 0.415782 9.63564 5.25873
85 1 9.96234 9.46566 5.67285
19 1 7.71867 8.12961 7.15816
100 1 5.26086 8.84279 9.96523
33 1 8.84853 4.80891 6.65824
35 1 7.87908 4.3424 6.44003
26 1 0.967153 5.81391 8.05796
36 1 7.3096 5.09313 6.16825
89 1 2.65535 0.206518 5.71377
22 1 9.84441 6.9344 7.28526
88 1 1.77754 9.77984 5.91883
99 1 4.59062 9.50695 9.89032
32 1 9.31954 4.07852 6.91402
27 1 1.15869 5.02668 7.6121
24 1 0.193316 6.73416 8.32539
23 1 10.0581 7.3958 8.06671
90 1 3.3681 0.261534 6.3843
87 1 1.03928 9.10963 5.80409
95 1 4.99659 0.513544 8.52821
96 1 5.5575 9.65858 8.68238
97 1 4.90446 8.94581 8.68848
98 1 4.7041 8.59576 9.56537
29 1 10.1019 5.13482 7.47109
31 1 9.99766 4.72844 6.84052
30 1 10.2167 4.18693 7.64068
28 1 0.409168 5.03493 6.98414
25 1 1.05755 6.7345 8.01876
93 1 3.9466 0.115088 7.47352
94 1 4.54916 0.796572 7.73732
92 1 3.8524 9.86976 6.4363
91 1 4.23442 0.677729 6.21133
ITEM: TIMESTEP
6000
ITEM: NUMBER OF ATOMS
100
ITEM: BOX BOUNDS pp pp pp
4.9999999998107114e-06 9.9999950000000002e+00
0.0000000000000000e+00 1.0000000000000000e+01
0.0000000000000000e+00 1.0000000000000000e+01
ITEM: ATOMS id type x y z
67 1 0.788098 2.37764 9.6812
64 1 2.48137 3.56705 0.33854
61 1 2.33691 4.93499 1.78727
60 1 2.92979 5.70638 1.64871
57 1 2.77585 7.46506 0.752656
58 1 2.62398 6.63594 0.293768
65 1 1.56332 3.56724 9.99979
68 1 0.842295 1.48654 9.88153
66 1 0.830608 3.35769 9.43919
56 1 2.35493 6.94461 1.47741
70 1 0.653679 1.08345 0.213728
69 1 0.718013 1.86043 0.743224
55 1 3.19252 7.45566 1.61557
54 1 3.89454 7.15316 2.20486
53 1 3.20589 6.86831 2.88925
71 1 0.76896 1.50732 1.15755
52 1 3.53664 5.99706 2.70184
51 1 4.22285 6.4306 3.20944
49 1 5.33604 5.07678 3.93912
72 1 1.29388 1.70402 1.94925
50 1 4.56369 5.60906 3.64492
48 1 4.64134 5.31635 3.32849
11 1 8.21278 0.857006 6.65034
73 1 0.892459 2.53505 1.71169
4 1 0.149298 0.18164 4.53721
1 1 9.9303 9.00308 5.23321
47 1 5.36388 5.57308 3.94426
7 1 9.76601 1.63977 4.81512
9 1 8.28138 1.74069 5.10596
12 1 7.99498 0.388567 7.47126
78 1 0.750788 2.69236 4.41891
76 1 0.0697503 3.03908 2.86184
74 1 1.14977 3.11801 2.4828
5 1 9.26527 9.86101 4.11301
43 1 6.58702 6.8779 5.56858
6 1 9.41385 0.852914 4.42795
2 1 9.49061 9.69523 4.72903
8 1 8.96895 1.09446 4.88038
3 1 0.355516 9.26226 4.46316
46 1 5.15216 6.25253 4.58065
10 1 8.6636 1.14876 5.83369
83 1 1.69681 3.04613 5.39113
89 1 0.764634 1.66156 7.36422
79 1 0.722829 3.31797 3.64532
77 1 0.74496 3.09665 3.54772
75 1 0.53072 3.88917 2.52598
41 1 6.56349 5.71759 7.01557
42 1 6.37036 6.49215 6.44595
44 1 6.06973 6.15112 5.09471
84 1 2.11473 2.54726 6.16801
86 1 1.41981 2.63994 7.62799
45 1 5.5342 6.9453 5.15217
85 1 2.3071 2.47299 7.17417
90 1 1.3032 0.958298 7.64522
91 1 2.18829 0.597005 7.53534
80 1 1.31981 2.74902 4.11652
82 1 1.71712 4.04036 5.50349
14 1 9.61497 0.488577 6.50632
13 1 9.02877 0.63073 7.30382
34 1 7.2429 3.80458 5.77749
36 1 6.24928 3.31328 5.83601
37 1 6.16518 3.86392 6.62753
39 1 5.15217 5.08744 7.5321
38 1 5.56024 4.26563 7.29022
87 1 0.825526 1.92424 8.06105
88 1 0.265605 2.42262 7.44309
15 1 9.07448 9.86138 6.93567
81 1 1.3013 3.457 4.80698
32 1 8.01256 5.27439 5.46282
35 1 6.90015 3.25942 6.46584
33 1 7.97199 4.33538 5.56059
31 1 7.46807 4.49459 5.13295
28 1 7.82345 6.03582 6.83258
40 1 5.74522 5.31264 6.78206
21 1 8.80662 7.32714 7.69605
92 1 2.82156 9.89849 7.36199
16 1 9.80319 9.5929 7.54066
93 1 3.37448 9.58245 8.0968
94 1 3.00909 8.63129 8.13237
30 1 7.98375 4.94946 5.74103
27 1 8.44299 5.69214 7.46312
29 1 7.37834 5.63794 6.08211
22 1 9.72618 7.13621 7.54231
19 1 0.15705 7.44231 8.54296
20 1 9.59672 7.88186 7.82953
18 1 0.168831 8.52248 8.35116
17 1 0.131846 9.48301 8.41482
95 1 3.36786 7.92377 7.51942
26 1 9.06637 6.2777 7.90357
24 1 9.5819 5.55033 7.93069
25 1 8.67905 5.4089 8.10367
23 1 9.26454 6.3938 8.01441
97 1 3.11479 7.42552 7.07457
96 1 2.54606 8.20313 7.00948
63 1 2.86312 3.36777 1.194
62 1 2.29788 4.23348 1.14783
59 1 2.99229 5.82654 0.689237
98 1 3.55793 8.20702 7.28719
100 1 5.19528 8.69121 7.34765
99 1 4.28913 8.64024 6.94642
ITEM: TIMESTEP
7000
ITEM: NUMBER OF ATOMS
100
ITEM: BOX BOUNDS pp pp pp
4.9999999998107114e-06 9.9999950000000002e+00
0.0000000000000000e+00 1.0000000000000000e+01
0.0000000000000000e+00 1.0000000000000000e+01
ITEM: ATOMS id type x y z
70 1 1.59203 3.3946 1.53672
65 1 1.83149 4.99277 1.30729
64 1 1.20241 5.81478 1.23911
59 1 0.738454 7.52887 2.30701
58 1 1.56084 7.23872 1.96259
69 1 1.86713 3.47981 2.51734
71 1 1.60726 2.58063 1.02524
63 1 2.16386 6.03843 0.940487
62 1 1.19657 5.88236 0.74693
57 1 2.50255 6.91894 2.03817
72 1 1.19142 2.17975 1.97338
73 1 1.44938 2.48309 1.12827
61 1 1.58309 6.4299 1.45115
60 1 0.798028 6.66803 1.98016
56 1 3.21571 6.32007 1.86203
55 1 2.45383 5.70503 2.01383
74 1 1.78889 1.62822 1.50912
75 1 2.679 1.78657 1.10213
52 1 4.15407 4.18735 3.34867
53 1 3.77324 4.93414 2.85728
54 1 3.07167 5.03669 2.24126
76 1 3.47175 2.19022 1.42444
77 1 3.36109 2.15228 2.39995
50 1 5.5857 4.71643 3.06497
48 1 5.59121 4.60576 4.0824
51 1 4.75063 4.95101 3.53013
80 1 2.91628 2.41866 4.29825
79 1 2.51139 2.608 3.41577
49 1 5.33845 5.39961 3.65474
47 1 4.97427 4.79829 4.79363
5 1 9.33331 1.11443 6.18839
4 1 9.4495 1.15698 5.22093
8 1 0.839043 2.0535 6.01112
6 1 -0.00594313 1.47544 5.573
7 1 0.928293 1.57819 5.20138
78 1 3.39975 2.83096 3.07865
81 1 2.76321 1.91362 3.48226
46 1 4.4335 5.35818 5.37206
3 1 0.211639 0.517669 5.22506
2 1 0.309947 0.440438 4.30828
9 1 0.332711 1.54114 6.69996
83 1 2.53012 3.12706 4.4532
82 1 2.39046 2.21049 4.33969
31 1 8.37405 4.02042 7.07703
33 1 7.07281 4.47776 7.64461
30 1 7.82156 3.47375 6.41508
32 1 7.45169 3.79844 7.05749
44 1 4.57444 3.96986 6.15159
45 1 4.84969 4.85668 6.05701
43 1 4.19717 3.09318 6.36048
1 1 9.76518 0.876083 3.66597
10 1 9.87324 2.03094 7.45112
84 1 2.38196 3.18693 5.47757
36 1 5.79248 4.3148 7.2921
34 1 7.00648 4.09618 6.70346
29 1 8.58892 4.12527 6.71535
42 1 3.86139 2.35645 5.83266
14 1 8.59441 1.07945 7.3616
11 1 9.1951 1.24501 7.50021
35 1 6.57683 3.77496 7.53985
37 1 5.65232 5.24357 7.02094
40 1 4.02854 3.3878 7.03209
41 1 4.31978 3.12246 6.17272
28 1 8.79117 4.86983 7.24091
97 1 1.96358 8.37539 6.27555
96 1 2.07633 8.79543 7.07531
99 1 1.40224 8.98856 5.05536
15 1 8.60068 0.153885 6.88658
91 1 2.86973 1.51239 7.76587
12 1 8.43006 0.654628 7.59343
13 1 8.25661 1.29374 8.23033
90 1 3.30235 1.87261 6.99693
89 1 2.97618 2.76077 6.53899
88 1 3.26209 2.76008 7.47025
86 1 2.09706 2.46537 6.62271
85 1 2.08366 3.43665 6.35887
38 1 5.14713 4.3954 6.95797
39 1 4.77762 3.65416 7.5362
27 1 9.4326 5.41475 6.837
22 1 8.42748 6.68388 5.96023
21 1 8.98392 6.63326 6.73046
95 1 2.78969 8.55374 7.79686
98 1 1.69208 9.23056 5.94252
20 1 9.8365 7.20205 6.62768
100 1 1.29935 9.20943 5.98084
92 1 2.25226 0.844791 8.13994
16 1 8.52245 0.404982 5.95571
87 1 2.37786 2.32508 7.51855
25 1 8.32115 4.84891 5.89645
24 1 8.04256 5.22464 5.07626
26 1 9.21393 5.25757 5.90983
23 1 7.91962 6.08913 5.46182
19 1 9.48184 8.07515 6.98812
18 1 9.10063 8.85915 6.58368
94 1 2.70825 9.38157 8.35499
17 1 9.15354 9.67707 5.95428
93 1 1.94819 9.92247 7.9629
68 1 1.69134 4.12241 1.71568
67 1 1.84608 4.74868 1.03008
66 1 1.10697 4.38472 1.53549
ITEM: TIMESTEP
8000
ITEM: NUMBER OF ATOMS
100
ITEM: BOX BOUNDS pp pp pp
4.9999999998107114e-06 9.9999950000000002e+00
0.0000000000000000e+00 1.0000000000000000e+01
0.0000000000000000e+00 1.0000000000000000e+01
ITEM: ATOMS id type x y z
75 1 2.33246 2.186 3.40043
71 1 1.71706 3.48242 2.77744
73 1 2.53507 1.92337 3.49416
76 1 3.29345 2.16742 3.52159
65 1 0.190881 5.97109 2.13442
67 1 0.221369 5.57891 1.79247
64 1 9.78651 6.73206 1.66956
62 1 0.315201 7.17858 2.71585
63 1 0.731187 6.72101 2.02231
74 1 2.29087 1.63074 2.63783
72 1 2.20981 2.85979 3.29386
70 1 1.71582 4.41134 2.73473
68 1 0.703158 4.73892 1.8652
66 1 9.64351 5.30652 2.4775
55 1 2.98646 5.90248 3.29254
56 1 2.71794 6.68074 3.79929
60 1 1.8814 6.92669 2.67341
61 1 1.10399 7.2478 2.15127
57 1 2.90923 6.17747 2.99654
58 1 3.08972 7.07085 3.27212
77 1 3.99373 1.80921 2.93875
69 1 1.45751 4.19207 1.89701
54 1 3.47264 5.22827 3.81529
59 1 2.24994 7.51187 3.35917
81 1 5.16297 0.835094 2.8637
79 1 5.24821 1.29631 3.78888
78 1 4.89291 1.99506 3.23855
52 1 3.54054 4.84429 4.91071
53 1 3.9574 5.62009 4.53455
51 1 4.1004 4.1268 5.01181
50 1 4.47661 3.94764 4.14436
1 1 1.51624 5.28622 4.79286
48 1 3.93018 3.28383 4.30394
49 1 3.58444 4.17722 4.47067
2 1 1.04013 4.64171 4.22347
82 1 4.99136 0.160808 2.1495
80 1 4.71374 1.71605 2.96762
83 1 4.13385 9.74869 2.04599
47 1 4.71264 2.92686 4.73507
3 1 0.74691 4.72333 5.14098
4 1 9.81738 4.76089 5.40588
7 1 8.82394 3.09236 6.2945
6 1 8.90638 3.61277 5.48574
84 1 4.32668 0.153883 2.93318
46 1 5.65173 2.85088 4.56962
24 1 7.66175 5.61517 5.16215
23 1 8.25565 5.40919 4.48689
99 1 4.08987 8.68479 8.58093
16 1 6.21722 9.03922 4.76554
5 1 9.71117 3.84747 5.08577
8 1 8.00014 2.74869 5.71379
42 1 6.54951 3.26563 5.63006
85 1 3.41264 0.107749 3.04378
43 1 6.42569 2.55632 5.03933
41 1 6.25231 3.46563 6.51341
30 1 5.26628 5.9912 6.98423
44 1 5.52263 2.41858 5.25121
45 1 5.54004 3.3968 5.40673
25 1 7.10241 6.05485 5.93534
26 1 6.69286 6.90894 6.28188
22 1 8.04676 6.34411 4.31612
97 1 4.20688 8.54113 8.20882
100 1 3.81779 9.53676 9.02479
98 1 4.98328 9.01547 8.55477
17 1 6.42121 8.09227 4.61086
15 1 6.71752 9.74928 5.07612
9 1 7.95049 1.99555 6.27569
90 1 3.73429 0.366818 5.83845
86 1 3.66701 0.674978 3.79571
89 1 3.18446 0.867199 5.23138
40 1 5.88529 2.58393 6.51552
34 1 7.67196 4.70473 8.64812
32 1 6.29496 5.08156 7.62631
31 1 6.0869 5.61055 6.82729
29 1 5.38179 6.81962 7.52087
38 1 6.56086 3.28088 7.34595
37 1 7.43686 3.7578 7.49121
27 1 7.02061 6.40647 7.19932
21 1 7.2183 6.7781 4.61651
20 1 6.82218 7.34815 5.35089
19 1 7.67807 7.56332 5.75735
96 1 3.3737 9.02074 8.12847
18 1 7.21298 8.09537 5.046
12 1 7.51946 1.03523 6.41491
14 1 7.56739 0.014849 5.38331
11 1 7.32368 1.09201 5.49479
91 1 3.32829 0.394243 6.71322
10 1 8.06847 1.05698 6.0596
87 1 4.01727 0.373548 4.63712
88 1 3.57929 1.12175 4.40836
39 1 5.95609 3.48989 6.50298
35 1 7.21343 4.33761 7.86907
36 1 6.6746 3.63858 8.09941
33 1 7.1751 4.72736 7.82508
28 1 6.27496 6.49246 7.7155
95 1 2.50466 9.43003 8.24299
92 1 3.53461 9.58704 6.1826
13 1 7.65243 0.0883022 6.32157
93 1 3.08171 9.28064 6.94014
94 1 2.63069 8.65808 7.55747
ITEM: TIMESTEP
9000
ITEM: NUMBER OF ATOMS
100
ITEM: BOX BOUNDS pp pp pp
4.9999999998107114e-06 9.9999950000000002e+00
0.0000000000000000e+00 1.0000000000000000e+01
0.0000000000000000e+00 1.0000000000000000e+01
ITEM: ATOMS id type x y z
78 1 2.20622 0.057532 1.03369
77 1 1.92034 0.564829 1.75733
80 1 2.35661 8.50528 1.95953
81 1 2.97729 9.16191 1.59911
82 1 3.85857 8.84235 1.72877
84 1 4.82493 8.80493 2.07899
79 1 2.39836 9.5019 1.79574
76 1 2.50689 0.590466 2.51056
75 1 2.90372 1.41917 2.80844
74 1 2.86552 2.06654 2.1459
73 1 3.62703 1.5079 2.35531
69 1 1.86649 3.46141 2.80471
83 1 4.10797 9.10213 2.6273
13 1 7.99966 9.992 2.59739
12 1 8.30301 0.596481 3.25827
72 1 2.9678 1.76429 3.10865
10 1 7.40199 1.83197 2.98515
11 1 8.35286 1.57298 3.27715
71 1 2.28641 2.53112 3.26764
9 1 7.69931 2.59995 3.39757
68 1 0.981177 3.21442 2.87092
70 1 2.82231 3.30996 3.08474
8 1 8.52683 3.14921 3.53157
65 1 1.56726 5.3077 3.45763
64 1 2.02383 6.12601 3.51409
61 1 2.26822 6.92636 3.17153
85 1 4.66651 8.9174 3.01739
15 1 7.08909 8.97486 3.19539
86 1 5.38252 9.37946 3.56263
14 1 7.1234 9.81793 2.86764
6 1 8.21327 3.49158 3.7413
67 1 1.28155 3.68985 3.64807
5 1 7.96852 4.27336 4.28318
66 1 1.83326 4.52787 4.00315
63 1 1.21974 6.63991 3.78288
62 1 2.05106 6.98621 4.06012
60 1 1.94358 7.31899 3.94845
16 1 7.46192 8.95947 4.09277
7 1 8.44579 2.99087 4.4564
3 1 8.08411 4.27825 4.37652
2 1 8.91518 4.78329 4.54018
4 1 7.85442 5.20037 4.4512
59 1 1.70989 7.35892 4.89668
58 1 1.79269 8.3595 4.97501
88 1 4.61927 9.01828 4.34103
87 1 5.47881 9.48775 4.53428
17 1 7.06158 9.75717 4.436
44 1 7.0594 3.38109 5.24916
50 1 4.21535 3.9555 5.23798
47 1 5.17765 3.88387 5.52457
49 1 4.71494 4.75293 5.42622
1 1 9.06963 4.48474 5.45539
57 1 1.7676 7.36842 5.1566
23 1 5.31958 8.19946 5.14849
21 1 6.43018 8.96869 5.68604
19 1 6.57083 8.82847 5.12618