ITEM: TIMESTEP
0
ITEM: NUMBER OF ATOMS
500
ITEM: BOX BOUNDS pp pp pp
-7.5000000000000000e-01 3.0750000000000000e+01
0.0000000000000000e+00 3.0000000000000000e+01
0.0000000000000000e+00 3.0000000000000000e+01
ITEM: ATOMS id type x y z
356 1 16.9749 11.6992 0.116484
355 1 17.6578 12.416 0.0464622
214 1 5.10575 23.748 4.14136
211 1 6.20426 22.5516 4.52313
209 1 7.74025 22.6565 4.90144
215 1 4.16027 24.0331 4.30584
213 1 5.74584 24.2616 4.76465
216 1 3.20798 24.4448 4.30018
219 1 2.23835 25.6983 4.58961
220 1 2.61069 26.5609 4.72145
221 1 3.27946 27.267 4.63608
118 1 15.7495 1.26728 5.1137
117 1 16.6987 1.03394 5.40453
210 1 6.84435 22.6163 5.21442
208 1 8.71874 22.8385 5.09346
212 1 6.17644 23.4514 5.00751
217 1 3.58065 24.6326 5.33252
218 1 3.07849 25.5146 5.18011
222 1 4.02594 26.7287 5.09564
223 1 3.78391 27.4427 5.67304
119 1 15.1926 1.46228 5.9004
116 1 17.065 1.48137 6.21396
207 1 8.50433 22.0564 5.74595
224 1 4.59299 27.2307 6.26515
226 1 4.03411 28.7784 5.97737
120 1 14.3343 1.34032 6.48161
121 1 14.9017 2.14426 6.61417
115 1 17.1905 2.23101 6.85997
101 1 16.2297 6.89972 6.89002
206 1 7.88351 22.2812 6.49838
225 1 4.20289 28.0329 6.65495
227 1 4.26406 29.5366 6.63217
129 1 11.2694 0.128658 7.58346
128 1 12.2045 0.438712 7.31003
130 1 10.9601 1.05049 7.55508
131 1 10.7892 2.06555 7.64298
122 1 15.4091 2.24645 7.45725
113 1 16.5461 3.26352 7.67639
114 1 17.4811 3.01038 7.36149
112 1 16.4575 4.24153 7.83367
476 1 20.9908 3.81901 7.16585
475 1 21.9954 3.72472 7.42975
474 1 22.4929 4.5422 7.62387
102 1 15.9187 6.66028 7.76159
204 1 7.17874 20.9843 7.656
205 1 7.38703 21.8432 7.19696
231 1 4.50354 26.4072 7.5436
230 1 4.55589 27.373 7.66082
229 1 4.36591 28.3534 7.8021
228 1 4.64963 29.3147 7.55724
127 1 12.2395 1.04418 8.07162
123 1 14.5499 2.11118 7.99926
132 1 11.1842 2.62264 8.3357
124 1 14.2876 2.99925 8.26377
479 1 19.8537 3.79897 8.47664
111 1 15.6259 4.57108 8.33892
478 1 20.3947 4.5396 8.16359
477 1 21.3372 4.39766 7.96039
473 1 23.3732 4.73696 8.00067
203 1 6.52988 20.4152 8.16675
232 1 3.74696 25.9434 7.96725
133 1 10.6651 1.88808 8.82276
126 1 12.8349 1.78021 8.63707
134 1 10.4165 2.77319 9.09768
125 1 13.6048 2.50259 8.72999
480 1 20.4588 4.00819 9.16507
109 1 16.2992 4.97402 9.17656
472 1 22.8595 4.41816 8.77929
110 1 15.5946 5.44874 8.69962
103 1 16.0236 7.05531 8.62946
104 1 16.6525 7.48022 9.24553
176 1 22.6087 9.20256 9.09324
202 1 6.58392 20.5299 9.1242
233 1 3.21989 25.6307 8.68493
235 1 1.87745 26.2738 9.03123
294 1 18.3019 0.699853 9.78282
295 1 19.2997 0.508392 9.8601
291 1 16.2137 0.954663 9.74216
293 1 17.3853 1.02277 9.83568
135 1 9.72464 3.20504 9.73403
137 1 8.43548 4.16451 9.99747
136 1 9.38017 4.11426 9.74061
481 1 21.1853 3.94832 9.81306
471 1 22.3472 4.54643 9.61693
108 1 17.1625 5.56183 9.3156
107 1 17.5145 6.37482 9.76576
177 1 23.2408 9.74012 9.66841
180 1 25.4579 10.5726 9.97815
182 1 27.1918 10.6002 9.88945
172 1 21.0236 10.9957 9.61241
173 1 21.8834 10.9521 9.94533
183 1 27.8632 11.2903 9.90646
171 1 20.2088 11.5745 9.30251
170 1 20.5595 12.2576 9.87579
201 1 5.63644 20.6631 9.5157
234 1 2.57316 25.7535 9.45797
236 1 2.38292 26.9718 9.5138
258 1 9.68499 27.7497 9.95295
259 1 9.94586 28.6048 9.64884
264 1 8.92493 0.618787 10.6722
292 1 16.6415 1.68669 10.1934
489 1 20.2545 1.94943 10.1639
488 1 21.2816 1.95924 10.3284
487 1 21.555 2.84965 10.4713
138 1 7.70989 3.63993 10.3649
482 1 20.4525 3.85999 10.3987
139 1 7.54438 4.56956 10.6412
470 1 22.9031 4.48001 10.4702
105 1 16.8209 7.75994 10.1211
106 1 17.7048 7.28139 10.1416
175 1 22.4802 9.15832 10.0371
174 1 22.1319 10.0304 10.2023
178 1 24.0887 10.1408 10.1177
179 1 24.7249 10.6878 10.5784
181 1 26.2789 10.1057 10.0457
184 1 28.5037 10.6234 10.13
185 1 29.4457 10.3371 10.0049
186 1 29.8432 10.9058 10.7021
237 1 2.58508 27.057 10.4267
257 1 10.6797 27.5908 10.1504
260 1 9.9433 29.4146 10.2901
296 1 19.4282 29.9215 10.624
263 1 9.338 0.0365713 11.259
297 1 19.725 0.518228 11.3324
265 1 9.87799 0.940285 10.9131
290 1 16.1767 0.886852 10.7562
497 1 21.541 1.06149 11.3206
286 1 16.5046 2.69441 11.3383
490 1 19.8522 2.20366 11.0147
143 1 9.54869 3.46886 11.4153
285 1 15.6942 3.23944 11.0918
486 1 22.2631 2.86613 11.137
140 1 7.97947 3.99578 11.3824
483 1 20.8969 3.71716 11.2244
469 1 23.7972 3.99686 10.7216
187 1 30.5659 11.3415 11.2618
168 1 20.2392 11.4752 11.338
169 1 20.1036 12.2304 10.7426
199 1 2.84498 16.5828 11.2437
200 1 3.72459 17.0788 11.2558
238 1 2.79374 27.5682 11.2614
255 1 9.10846 27.8167 10.8077
256 1 9.99254 27.4737 10.9309
239 1 2.22505 28.3695 11.0931
261 1 9.87666 28.7867 11.0702
500 1 23.4577 29.5075 11.3296
266 1 10.2965 0.694526 11.7412
298 1 20.6277 0.0686624 11.439
499 1 22.9387 0.162947 11.8949
498 1 22.2243 0.880459 11.9855
289 1 16.1054 1.43986 11.5771
288 1 16.801 1.81299 12.139
492 1 18.867 1.86078 11.4728
287 1 17.1071 2.67062 12.0824
491 1 19.1993 2.76926 11.5221
485 1 21.3818 2.48271 11.5629
284 1 15.7837 3.36328 12.0219
484 1 20.4786 3.00037 11.7496
142 1 8.85147 3.6172 12.1277
144 1 10.3988 3.939 11.5163
468 1 23.5195 3.76839 11.6427
167 1 19.6094 11.1175 11.986
188 1 30.5904 12.3316 11.579
193 1 -0.471079 14.16 12.0529
194 1 0.452969 14.3901 11.502
196 1 0.520046 15.5864 12.0919
197 1 1.24463 16.2219 11.8512
198 1 2.15404 16.6681 11.9057
248 1 6.14114 26.9008 12.0818
253 1 9.6387 27.125 12.0367
254 1 8.8473 27.5674 11.7377
300 1 20.9054 28.2167 11.8765
240 1 1.72027 28.6754 11.8867
299 1 20.5635 29.0999 11.6179
262 1 9.79758 29.3579 11.8491
267 1 10.643 0.219044 12.5188
280 1 15.1946 1.26137 12.8248
494 1 19.2397 1.41929 12.4199
495 1 20.1015 1.00328 12.5299
496 1 21.0305 1.03212 12.1654
281 1 14.7903 2.13599 12.7208
493 1 18.3635 1.89606 12.3637
282 1 15.8021 2.32879 12.7514
283 1 16.2992 3.20044 12.798
141 1 7.98422 3.89871 12.3661
145 1 10.8757 3.99486 12.3195
467 1 23.776 3.67535 12.5429
147 1 12.1971 4.42842 12.8205
149 1 12.6079 6.19498 12.8196
160 1 17.8312 9.14518 12.6537
161 1 16.8369 9.42649 12.6945
189 1 29.958 12.2316 12.283
190 1 30.7403 12.6235 12.7945
195 1 0.309067 14.7084 12.4544
419 1 24.3186 20.3689 12.4773
249 1 6.93921 26.4213 12.2989
250 1 7.87748 26.0724 12.3617
251 1 7.99622 26.8837 12.8306
252 1 8.9733 27.3335 12.7573
242 1 3.36789 28.3224 12.2618
246 1 6.21236 28.3759 12.6745
241 1 2.45128 28.6116 12.5906
243 1 3.8246 29.1833 12.3015
245 1 5.35298 28.8844 12.3565
244 1 4.71247 29.6021 12.2077
269 1 10.1557 0.871877 13.434
268 1 10.9292 1.07884 12.8753
462 1 25.8068 0.948707 13.182
463 1 25.4092 1.83666 12.9123
465 1 25.0887 3.25338 13.524
466 1 24.5402 3.91515 13.1071
146 1 11.2215 4.35156 13.181
148 1 11.9956 5.40607 12.9571
150 1 13.3396 5.51416 13.0672
151 1 14.2739 5.49219 13.3736
159 1 17.1872 8.53364 13.013
302 1 21.6942 9.31926 13.198
162 1 17.3327 10.16 13.0298
165 1 18.7182 10.6915 13.4056
301 1 21.0999 10.0337 13.0645
163 1 17.324 11.0641 13.4457
166 1 19.4474 11.0401 12.9605
191 1 -0.0556804 12.9224 13.4017
192 1 -0.32648 13.7604 12.9566
403 1 24.0236 14.3709 13.4658
401 1 24.989 14.4126 12.8865
402 1 24.4955 15.2194 13.2395
423 1 21.3123 19.9151 13.5237
421 1 22.8629 19.9786 12.888
420 1 23.8303 19.7842 13.0593
424 1 20.2926 20.0564 13.355
422 1 21.9471 20.4237 13.1048
425 1 20.4013 20.8718 12.8747
418 1 24.9334 20.9989 12.9551
247 1 6.27414 27.4227 12.9062
436 1 23.3645 27.284 13.5597
270 1 9.91111 29.9559 13.2225
279 1 14.9018 0.825032 13.6942
461 1 25.2675 1.05954 14.0288
274 1 11.6281 1.6512 13.6061
275 1 12.3374 1.96416 14.1174
277 1 13.4973 1.86948 14.2534
278 1 14.3477 1.53673 13.9438
464 1 25.3088 2.35877 13.7807
152 1 14.0805 6.20201 13.8856
158 1 16.6393 8.42606 13.8573
303 1 21.808 8.62494 13.8013
304 1 22.4676 9.2955 14.0615
93 1 6.60518 11.4621 13.9168
92 1 7.21721 12.1204 14.2121
164 1 18.2191 11.4594 13.6574
411 1 26.2398 15.8884 14.1271
412 1 25.5443 16.4537 13.7911
413 1 25.1264 17.259 14.0271
414 1 24.382 17.8877 13.8708
415 1 24.2524 18.7915 14.1294
416 1 24.8904 19.3996 13.8263
417 1 25.1267 20.2641 13.5873
426 1 20.3805 21.3789 13.7148
427 1 21.0264 22.1006 13.9628
428 1 21.8589 22.6349 13.8892
431 1 21.3262 25.1223 14.2494
435 1 23.5801 26.4951 14.0433
437 1 23.8644 28.0079 13.9041
457 1 25.7028 28.0055 14.107
271 1 10.1215 29.8468 14.171
272 1 10.9197 0.286678 14.5682
460 1 25.9128 0.38267 14.3645
273 1 11.5373 1.0574 14.3827
276 1 12.8154 1.33726 14.7049
9 1 29.9936 4.86544 14.5787
153 1 14.674 6.07218 14.6001
154 1 15.6609 5.96011 14.583
155 1 16.0315 6.86389 14.6386
12 1 29.1625 7.29622 14.6101
157 1 16.3036 8.12365 14.7615
14 1 30.1336 8.02296 14.9512
305 1 22.2144 9.68975 14.9056
95 1 6.32948 10.7201 14.834
94 1 7.1114 10.7603 14.3109
91 1 8.09776 12.4433 14.559
90 1 8.38293 13.348 14.8565
404 1 24.1602 14.0066 14.3998
405 1 23.2272 14.4146 14.4635
410 1 25.5412 15.699 14.8433
409 1 24.5756 15.7848 14.9877
82 1 8.0967 17.1652 14.7321
429 1 21.3268 23.2462 14.4432
430 1 21.6538 24.1702 14.4482
434 1 22.7956 26.0573 14.4903
456 1 25.9789 27.7195 14.9653
438 1 24.6113 27.9937 14.5817
458 1 25.9912 28.7608 14.6547
8 1 30.1582 4.64867 15.4924
11 1 29.068 6.41328 15.095
10 1 29.88 5.72907 15.0498
156 1 16.0742 7.44618 15.3707
15 1 -0.557457 8.21963 15.4661
13 1 29.2562 7.89379 15.3772
96 1 6.04155 11.353 15.551
97 1 5.07955 11.6296 15.4592
98 1 4.85478 12.578 15.5791
89 1 7.3975 13.3129 15.1864
100 1 5.64937 13.7276 15.2472
406 1 22.981 14.6707 15.3435
407 1 22.6769 15.5887 15.3325
408 1 23.6387 15.762 15.3219
83 1 7.66178 16.5551 15.4579
81 1 8.10375 17.9445 15.4111
80 1 8.78266 18.6517 15.5288
77 1 10.3422 19.2355 15.3251
79 1 8.86447 19.5689 15.3741
78 1 9.75188 19.9655 15.1995
76 1 10.9693 19.9615 15.2661
75 1 10.9405 20.9032 15.495
432 1 21.577 25.5259 15.0679
433 1 22.2755 26.2039 15.3122
455 1 26.8402 27.4674 15.4886
439 1 23.7713 28.3363 15.0228
440 1 24.6149 28.3295 15.6221
459 1 25.9562 29.7017 15.0376
1 1 26.7812 2.1158 16.3717
7 1 29.6716 4.75714 16.3526
306 1 22.4799 9.70638 15.8821
20 1 0.239701 10.679 16.3747
21 1 0.493725 11.6323 16.2614
99 1 5.4607 13.2041 16.0085
88 1 7.57521 14.1085 15.8061
85 1 8.22307 14.8132 16.208
84 1 7.96916 15.7353 15.9163
74 1 10.6943 21.2605 16.3884
72 1 10.9999 22.514 15.9311
441 1 25.2526 28.5447 16.3528
454 1 26.7773 28.1653 16.1379
2 1 27.6218 2.21129 16.8468
3 1 28.3077 2.8376 16.6397
6 1 29.7309 3.85016 16.7526
16 1 -0.708955 8.27191 16.4819
17 1 29.9307 8.78666 16.7908
18 1 30.2358 9.74002 16.7204
19 1 -0.512918 10.4365 16.9101
307 1 22.1432 10.2391 16.6288
308 1 22.2919 11.1944 16.5711
22 1 -0.137318 12.1781 16.7783
87 1 6.93296 14.1633 16.5441
86 1 7.28098 15.1035 16.4867
70 1 9.74231 21.7517 16.9753
73 1 11.494 21.851 16.4872
71 1 10.2279 22.4652 16.5297
442 1 24.4305 28.1515 16.73
453 1 27.265 28.244 17.0046
4 1 28.6651 3.54228 17.2604
5 1 29.5629 3.16043 17.3823
30 1 27.766 8.55216 17.7961
29 1 28.6313 8.9474 17.5494
316 1 24.1698 10.6036 17.587
317 1 25.1673 10.516 17.7761
309 1 22.0282 11.0198 17.4921
23 1 0.000819927 11.7239 17.5925
313 1 23.2792 12.0599 17.6902
312 1 22.499 12.6479 17.7463
69 1 10.4137 21.4424 17.6349
443 1 24.1981 27.7896 17.6104
452 1 27.9081 28.6962 17.6299
38 1 30.5035 6.72614 18.505
31 1 27.0134 8.98414 18.3212
28 1 29.5586 9.23891 17.9735
27 1 30.4738 9.1996 18.4487
315 1 23.4099 10.5123 18.1932
310 1 22.0947 11.1953 18.3913
318 1 25.7804 11.1741 18.05
24 1 -0.329147 11.5622 18.5547
311 1 21.7412 12.0876 18.123
314 1 23.4956 11.4491 18.3677
68 1 9.81507 21.7817 18.3551
444 1 24.1006 28.4311 18.3956
451 1 27.0527 28.885 18.0721
39 1 30.6266 5.90665 19.0504
37 1 30.2351 7.48982 18.9576
26 1 -0.213848 9.65669 18.7752
32 1 27.5964 9.4355 19.0821
25 1 -0.367973 10.6157 18.8066
319 1 26.2021 11.3482 18.8682
324 1 22.9485 12.8592 18.6503
323 1 23.9312 13.1439 18.7786
67 1 9.22998 22.2758 18.9739
450 1 26.4319 29.1266 18.8431
41 1 0.653869 5.66827 19.83
40 1 -0.344684 5.75519 19.8647
35 1 28.8822 7.9546 19.6594
36 1 29.8534 7.89488 19.7637
320 1 25.7667 12.0503 19.4169
321 1 25.0228 12.6421 19.5682
325 1 22.5195 13.4027 19.3515
322 1 24.1031 13.0611 19.7955
400 1 29.8879 18.6676 19.6272
66 1 8.93628 23.0544 19.5373
65 1 8.80698 23.8876 19.9157
61 1 6.62498 25.8512 19.6893
60 1 7.24314 26.6028 19.6175
445 1 23.7163 28.5406 19.3035
446 1 24.5691 28.0483 19.6024
449 1 25.6567 29.2268 19.4822
44 1 1.63952 3.52899 20.4989
43 1 1.92878 4.45888 20.4416
42 1 1.23709 5.15692 20.4541
34 1 28.5591 8.73734 20.0843
33 1 27.8028 9.4562 20.0506
328 1 20.1933 12.6512 20.3524
327 1 21.2043 12.6338 20.4092
326 1 22.0574 13.0485 20.083
399 1 30.2012 19.3497 20.2804
64 1 7.89566 24.2684 20.1672
63 1 7.01428 24.4758 20.4594
62 1 7.05174 25.4604 20.4394
59 1 6.86972 26.5618 20.5621
57 1 5.61122 27.6821 20.3235
58 1 6.5991 27.4933 20.5456
447 1 24.7823 28.8042 20.1619
448 1 25.459 29.4857 20.4538
46 1 2.71024 2.3757 21.3027
45 1 1.87187 2.93486 21.2223
329 1 19.9545 13.3068 21.0511
397 1 28.5133 19.2191 21.097
398 1 29.4317 19.0181 20.766
396 1 28.4706 20.23 21.0788
391 1 25.3289 21.2604 21.095
392 1 26.0567 21.8694 21.2524
56 1 5.61343 28.4295 20.8418
55 1 5.21802 29.1385 21.3338
47 1 2.82213 3.11815 21.9537
330 1 20.4088 13.4011 21.9499
390 1 24.4827 20.9569 21.6038
394 1 27.9178 21.2954 21.4422
395 1 28.7694 20.8195 21.774
393 1 26.9897 21.669 21.4869
54 1 5.73035 28.951 22.1339
50 1 3.46185 0.561836 22.6387
49 1 2.82459 1.31771 22.5233
48 1 2.96671 2.26489 22.4623
331 1 19.5057 13.5515 22.4526
389 1 24.2344 20.862 22.5255
51 1 3.71245 29.6599 22.6925
334 1 20.645 11.6602 23.4228
333 1 20.3238 12.5331 23.4507
332 1 20.0339 13.3565 23.1399
388 1 23.8866 20.8804 23.3963
53 1 5.38082 28.8364 23.0738
52 1 4.64823 29.4835 22.9402
335 1 21.5108 11.8905 23.8037
382 1 20.7059 18.5689 23.9716
387 1 22.948 20.5568 23.5973
336 1 21.1348 11.4782 24.5389
338 1 20.0688 12.4958 24.6707
381 1 19.8969 18.1217 24.3992
383 1 21.2116 18.9706 24.5993
386 1 22.7241 20.2359 24.4484
343 1 18.429 11.7902 25.4796
342 1 19.3757 11.4289 25.4818
337 1 20.7704 11.9741 25.2161
339 1 19.2335 12.6243 25.2947
380 1 19.5323 17.8577 25.3226
384 1 21.2592 19.5285 25.3074
385 1 22.1869 19.7794 25.1114
345 1 17.528 10.2391 26.222
344 1 18.0199 10.8789 25.7581
341 1 19.3828 11.7437 26.3716
340 1 18.9366 12.596 26.2369
379 1 19.9461 18.4949 25.9617
346 1 16.708 10.7083 26.5058
347 1 16.2808 11.5243 26.615
348 1 16.3454 12.3991 27.0038
365 1 14.8479 13.5337 26.8212
376 1 19.1431 16.502 26.5958
377 1 18.8541 17.3283 26.9758
378 1 19.3797 17.9604 26.4674
363 1 14.6321 12.2072 27.8061
364 1 14.6325 13.1761 27.6465
349 1 16.8072 13.0223 27.6771
366 1 14.8527 14.2764 27.4404
374 1 17.9516 16.6285 27.3444
375 1 18.9629 16.431 27.5292
353 1 18.171 12.3929 28.4645
352 1 18.565 13.2629 28.3801
350 1 17.289 13.7834 27.9609
351 1 18.3099 14.0701 27.9568
367 1 15.4845 14.5395 28.1189
368 1 15.5974 15.4226 28.4607
369 1 14.8661 16.1082 28.4428
370 1 15.273 16.9633 27.9545
371 1 15.9136 16.4968 28.4753
373 1 17.4932 16.4601 28.1995
360 1 15.1236 10.7956 29.1148
361 1 14.6507 11.6225 29.1733
362 1 14.897 12.4308 28.6732
354 1 17.4118 12.6378 29.1206
372 1 16.7786 16.5906 28.8648
358 1 16.3653 10.5446 29.9226
359 1 15.5157 11.0364 29.9117
357 1 17.1887 10.9212 29.6315
ITEM: TIMESTEP
1000
ITEM: NUMBER OF ATOMS
500
ITEM: BOX BOUNDS pp pp pp
-7.5000000000000000e-01 3.0750000000000000e+01
0.0000000000000000e+00 3.0000000000000000e+01
0.0000000000000000e+00 3.0000000000000000e+01
ITEM: ATOMS id type x y z
361 1 17.2025 12.5185 0.299172
358 1 17.551 12.5598 0.264257
357 1 18.3331 13.1417 0.121541
365 1 16.104 14.2478 0.676139
356 1 18.8294 13.9312 0.449305
368 1 14.8195 15.3799 0.347511
366 1 15.4568 15.0758 0.605376
362 1 17.1024 12.5748 1.24731
359 1 17.0025 12.3619 1.04215
363 1 16.5189 13.3902 1.23038
360 1 17.6835 12.9693 1.00067
367 1 14.7287 15.0676 1.24316
364 1 16.6732 14.3064 1.48413
112 1 16.6928 3.47659 4.62644
111 1 17.0827 4.33101 4.6547
202 1 5.99849 22.6453 4.83851
217 1 3.62809 26.2149 4.8638
218 1 2.77043 26.6938 4.77126
219 1 3.12481 27.614 4.98788
220 1 2.38215 28.0133 4.4729
113 1 16.9046 2.79485 5.21374
110 1 17.7048 4.22166 5.45477
203 1 5.99995 21.7601 5.35152
201 1 6.34011 22.0573 5.4489
206 1 4.06314 22.2567 5.08202
205 1 4.82832 22.5774 5.56852
204 1 5.70716 22.6408 5.14572
215 1 3.78993 25.8845 5.3888
216 1 4.53415 26.4501 5.18962
221 1 1.79377 27.4484 5.17815
222 1 1.70449 28.439 5.03687
121 1 12.8845 1.34489 6.12797
116 1 15.7941 2.51648 5.75024
114 1 16.3514 2.95258 5.94708
109 1 17.6767 3.42366 6.01032
207 1 3.9437 21.7016 5.96004
213 1 3.60695 24.5433 6.27623
214 1 3.6645 25.5037 6.27266
223 1 1.60831 27.8303 5.76464
122 1 12.987 1.33598 7.09378
120 1 13.0763 1.91918 6.95829
119 1 13.807 2.52443 6.76183
115 1 15.9069 2.49784 6.6457
472 1 23.7155 2.16486 6.93059
118 1 14.5415 3.18116 6.85066
117 1 15.4242 3.1386 6.45972
108 1 17.6429 3.12867 6.95198
469 1 25.4747 3.31118 7.0237
106 1 16.6753 4.08591 6.88662
107 1 17.5925 4.08121 7.04061
208 1 3.11093 21.5195 6.46284
209 1 3.98698 21.8493 6.44275
210 1 3.44571 22.4144 6.92581
211 1 3.05069 23.3115 6.82615
212 1 3.59155 23.9952 7.1008
224 1 1.71022 28.419 6.5818
225 1 2.67259 28.17 6.90308
123 1 12.4101 2.10434 7.15888
475 1 22.7387 1.7582 7.25414
476 1 23.0616 2.52793 7.8112
474 1 23.5776 2.14556 7.51967
471 1 24.4279 2.71842 7.25293
468 1 25.2 2.48929 7.48726
127 1 13.1428 3.44419 7.37369
473 1 23.3415 3.00667 7.15026
130 1 12.872 4.26621 7.83805
480 1 21.8273 4.18439 7.79815
128 1 13.5532 4.38327 7.23529
105 1 16.1785 4.66786 7.43684
131 1 12.9033 5.32764 7.74343
132 1 13.5708 6.05499 7.70101
134 1 12.5261 6.58274 7.56964
133 1 13.3236 6.8801 7.19972
135 1 11.7936 7.18802 7.74618
199 1 1.00885 13.5435 7.38239
200 1 1.83559 14.0447 7.40921
226 1 2.61547 28.4007 7.85507
124 1 12.6306 1.58842 7.96241
125 1 13.5945 1.8253 8.01761
467 1 25.3335 2.05517 8.31222
126 1 13.3628 2.7705 8.00056
477 1 22.6148 3.14208 8.42278
470 1 25.145 3.05369 7.88279
481 1 21.0916 3.78629 8.35143
129 1 13.5125 4.94715 7.98615
104 1 15.6395 4.98302 8.20537
482 1 20.9945 4.72508 8.17684
138 1 11.3248 5.81182 8.41688
136 1 11.9033 6.24543 7.99489
139 1 10.6828 6.47551 8.23405
198 1 0.893801 14.0831 8.19051
227 1 2.30189 27.7406 8.43869
466 1 25.1808 1.16364 8.67829
478 1 21.8166 2.9796 8.96827
479 1 21.8108 3.9319 8.73142
483 1 21.0281 4.87377 9.22225
103 1 14.9325 5.01629 8.85541
140 1 10.736 5.91527 8.9724
101 1 16.1339 6.16898 9.02527
137 1 11.2601 6.67681 8.60469
197 1 0.894104 13.5227 9.04925
300 1 18.0552 26.9264 8.74529
233 1 3.42148 28.8388 8.73657
255 1 7.67227 0.253363 9.79236
257 1 9.53564 0.472428 9.9423
465 1 25.4055 0.933277 9.58751
488 1 23.1559 2.66925 9.92104
484 1 21.4505 4.12145 9.71431
102 1 15.6189 5.50051 9.39315
141 1 11.204 6.30512 9.68671
151 1 14.4892 6.42328 9.92322
152 1 14.4245 7.42533 9.74345
153 1 14.7536 8.30566 9.60036
178 1 25.6152 11.3204 9.6955
179 1 26.1293 12.0666 9.60265
196 1 0.972608 12.623 9.51072
195 1 0.674888 13.6219 9.78554
297 1 19.5479 26.3234 9.78459
228 1 2.46136 27.3919 9.31194
229 1 3.23334 27.2371 9.99585
299 1 18.7895 27.2462 9.33573
232 1 2.81454 28.4248 9.32446
234 1 2.6731 28.9636 9.3354
253 1 6.32708 28.9019 9.85404
293 1 20.1388 29.0029 9.80853
256 1 8.66725 29.9949 9.89556
292 1 19.4263 29.684 9.77692
258 1 8.58493 0.249308 10.1702
290 1 18.7136 0.62273 10.4868
464 1 25.2738 1.38778 10.3845
285 1 16.2634 1.70634 10.2803
289 1 18.8096 1.62949 10.6094
463 1 25.7223 2.26947 10.5411
489 1 22.6349 3.09826 10.5587
487 1 22.1991 2.99402 10.1335
485 1 21.7255 3.66657 10.5824
486 1 22.5414 3.94861 10.246
143 1 12.3762 5.56106 10.5101
142 1 12.1736 6.3244 10.032
155 1 15.6893 8.0058 10.2494
154 1 15.1576 8.80192 10.2799
156 1 15.6046 8.97646 10.4228
176 1 24.4308 11.9097 10.5271
174 1 24.836 11.6464 10.4987
177 1 25.2726 12.0977 10.0617
181 1 26.2346 11.8358 10.4526
182 1 27.2243 11.7282 10.589
180 1 25.6238 12.5178 10.3024
184 1 27.339 12.8001 10.4828
194 1 0.324628 14.1763 10.5066
186 1 27.744 14.2295 10.1317
230 1 2.65977 26.9733 10.6743
298 1 18.6446 26.5857 10.0452
296 1 19.6439 26.9308 10.5476
231 1 2.83737 27.7923 10.1229
295 1 19.8233 27.8434 10.5806
235 1 2.07659 28.96 10.1499
294 1 19.3949 28.6211 10.2326
252 1 5.78908 29.5294 10.37
254 1 6.90157 29.6292 10.2
259 1 8.12024 0.172386 11.0358
260 1 7.60649 0.97597 10.9151
494 1 23.6735 0.772558 11.1948
283 1 14.8097 1.6799 11.1646
284 1 15.6192 2.08792 10.8668
286 1 16.9273 1.98214 10.9533
288 1 17.8399 1.51521 10.9044
491 1 22.9816 1.43191 11.0669
287 1 17.7354 2.48417 10.9018
490 1 22.7761 2.42003 11.1888
462 1 25.1136 3.01532 10.8509
144 1 12.4421 6.22863 11.2544
150 1 14.3803 6.33997 10.8667
157 1 16.2882 9.22656 10.9967
170 1 22.7975 10.9688 11.2465
173 1 24.5726 11.2336 11.3316
171 1 23.1411 11.7119 10.8045
175 1 24.4032 11.4501 11.3346
183 1 26.7532 12.3514 11.1181
185 1 27.7319 13.6127 10.9445
187 1 28.4365 14.1707 10.764
191 1 30.1033 13.865 11.3199
193 1 -0.558621 14.2883 10.9104
237 1 3.68158 29.0559 10.7562
236 1 2.74975 29.3232 10.8189
251 1 4.92328 29.7235 10.7865
291 1 19.2019 29.8449 10.7159
280 1 13.7216 0.0901606 11.7391
279 1 14.5625 0.458841 11.8752
496 1 22.1782 0.601597 11.8739
495 1 23.0883 0.61286 11.9762
261 1 7.11947 1.22225 11.7008
281 1 14.3315 0.742393 12.0822
493 1 22.8208 1.16011 11.4413
264 1 8.75653 1.78466 12.0113
282 1 14.1906 1.63541 11.8939
492 1 23.6439 1.68187 11.6813
262 1 7.35679 2.20086 11.7295
461 1 25.313 3.66731 11.4816
145 1 12.3103 5.70554 12.0041
149 1 13.7095 5.96657 11.4932
161 1 19.0726 8.3031 12.1191
159 1 17.9327 8.82936 11.6079
163 1 19.6883 8.95763 12.1411
158 1 17.12 9.42595 11.5002
167 1 21.0045 9.43259 11.9169
168 1 21.9559 9.53235 11.697
169 1 22.7531 10.0843 11.5364
172 1 23.6852 11.5172 11.5255
192 1 -0.534478 13.4936 11.5768
189 1 28.8724 13.582 12.0748
188 1 28.456 14.3657 11.7204
238 1 3.18872 29.0081 11.613
250 1 4.74515 29.8598 11.7402
497 1 21.4693 0.633163 12.5619
278 1 14.269 0.791382 12.7303
263 1 7.97 1.98031 12.4743
265 1 9.56893 2.08808 12.3963
460 1 25.365 3.22436 12.3458
146 1 12.841 5.42161 12.7492
148 1 13.975 6.08787 12.4074
160 1 18.2835 8.80638 12.4911
165 1 20.3075 8.86907 12.8389
164 1 20.0927 9.71421 12.528
190 1 29.8729 13.4983 12.1701
87 1 7.93218 13.8573 12.7903
239 1 2.89325 28.9376 12.6192
247 1 4.27431 29.1856 12.7345
249 1 4.57257 29.5968 12.7433
275 1 13.5152 29.4352 12.6579
277 1 14.3159 29.8287 12.8226
273 1 12.284 0.127958 13.0589
272 1 12.5518 1.02336 12.9353
498 1 21.3216 0.777711 13.529
269 1 11.4517 1.86516 13.1997
271 1 12.1783 1.89907 13.0692
266 1 10.334 2.33649 12.9071
268 1 11.9263 2.71531 13.3348
500 1 20.848 2.58238 13.5461
457 1 26.924 2.56943 13.2422
267 1 11.1142 2.85756 12.8906
459 1 26.0033 3.49527 12.9527
458 1 27.0353 3.4644 12.8848
147 1 13.6996 5.49072 13.1204
162 1 19.0936 8.83366 12.9096
166 1 21.0785 9.51348 12.9037
88 1 8.06213 13.3456 13.5682
86 1 8.65834 13.2322 13.0335
85 1 8.76322 14.1891 13.2272
422 1 22.435 22.5336 13.1864
423 1 22.3905 23.5348 13.0111
425 1 22.4083 23.2716 13.4821
426 1 21.6649 23.7803 13.2111
424 1 22.9953 24.1011 13.4612
243 1 3.93327 27.7215 13.3133
240 1 2.86612 28.2031 13.2893
246 1 4.58663 28.3181 12.9977
244 1 4.40891 28.4905 13.1673
276 1 14.1066 29.102 13.3816
248 1 3.83648 29.9022 13.2429
274 1 13.1525 29.8246 13.4546
455 1 25.7074 1.41098 14.109
270 1 11.8732 2.0599 14.0282
499 1 21.0429 1.66665 13.7478
456 1 26.4532 1.92885 13.7252
89 1 7.69807 12.7243 14.2301
84 1 9.5086 14.6431 13.6906
83 1 9.12672 15.486 13.8544
82 1 9.32536 16.3681 14.0892
418 1 21.8697 20.3307 13.7509
420 1 21.5893 21.0788 13.95
419 1 22.5693 21.0247 13.9286
417 1 22.4743 21.062 13.7101
421 1 21.8762 22.0173 13.7874
428 1 21.7879 23.7052 13.9061
427 1 22.0928 24.5612 13.6379
242 1 3.77812 26.9707 13.9124
241 1 3.08573 27.5878 14.0285
245 1 5.11675 28.3987 13.7872
454 1 25.5922 0.512849 14.5145
98 1 5.60709 12.0129 14.9918
81 1 9.64897 16.769 14.9296
411 1 25.1798 18.797 14.4949
415 1 23.7327 20.6012 14.4362
416 1 23.0892 21.2837 14.3682
429 1 21.9426 24.5875 14.3376
430 1 22.1563 25.4817 14.3283
453 1 25.0421 29.83 14.9959
5 1 25.6667 5.16673 15.1888
4 1 26.1827 5.80909 15.665
304 1 23.1721 6.98046 15.0311
303 1 24.0363 7.16897 15.382
14 1 28.2148 8.64648 15.4107
97 1 6.17214 11.3707 15.5342
100 1 3.7653 11.604 15.2522
99 1 4.73274 11.7202 15.3319
90 1 7.60869 12.7925 15.2768
409 1 26.3112 17.5884 15.0373
410 1 25.8132 18.3589 15.0803
412 1 24.4961 19.1479 15.0967
414 1 23.6767 19.9473 15.1088
431 1 22.0678 25.5964 15.2563
3 1 25.6088 5.05286 15.8899
6 1 25.055 5.42413 15.863
309 1 21.7389 6.23483 16.1907
7 1 25.8019 5.95214 16.335
306 1 21.9216 6.55126 15.8939
302 1 23.5438 6.82988 16.1524
305 1 22.617 7.19119 15.7711
13 1 27.849 8.03116 16.0154
15 1 28.4835 9.54378 15.7176
16 1 29.2547 10.1294 15.8468
96 1 6.38095 11.8711 16.3146
91 1 7.43761 13.3714 15.9897
80 1 9.50459 17.0097 15.8947
408 1 26.5705 17.0501 15.7836
413 1 24.4058 19.9197 15.7309
432 1 21.4284 25.6994 15.9282
433 1 22.271 25.3018 16.1887
435 1 22.9812 25.1175 16.3548
434 1 22.8859 26.0172 16.2285
448 1 25.9155 28.716 16.2527
452 1 25.1715 29.3616 15.8027
451 1 25.8296 29.9202 16.2602
450 1 26.0428 0.539901 16.912
2 1 25.7669 4.3005 16.497
1 1 26.1253 5.08359 16.912
307 1 21.7135 5.89626 16.6151
308 1 21.3087 6.74611 16.9499
310 1 21.6931 6.60088 17.1285
301 1 23.8159 6.89548 17.0885
8 1 26.3609 6.62015 16.9031
9 1 26.4291 7.59789 16.8701
10 1 27.2714 8.05411 16.9809
12 1 28.0376 8.43445 16.8518
21 1 29.9108 8.82472 16.5831
19 1 29.9147 8.62874 16.5279
17 1 29.713 9.97227 16.7408
18 1 30.3557 9.33116 17.0444
93 1 6.94416 11.6099 16.5495
92 1 7.14818 12.5442 16.4525
95 1 7.27756 12.2489 16.5605
404 1 26.5957 14.4936 16.9439
406 1 26.6895 16.2042 17.0882
79 1 9.47614 16.7325 16.788
407 1 26.0257 16.5891 16.4941
447 1 25.8976 28.1772 16.9979
449 1 26.0353 29.5548 16.6237
312 1 21.9801 7.0829 17.7207
20 1 29.7104 8.22648 17.3934
22 1 29.5447 8.29111 17.287
11 1 27.6277 8.68768 17.6814
94 1 7.36841 11.8216 17.3727
403 1 27.0341 14.6778 17.7718
405 1 26.5748 15.2789 17.3822
78 1 8.69818 16.4029 17.165
76 1 7.64057 17.8195 17.8085
77 1 8.3912 17.2837 17.4777
75 1 7.29925 18.7241 17.4394
74 1 7.28857 19.6718 17.3698
69 1 8.07863 23.005 17.6933
68 1 8.98778 23.3352 17.7912
437 1 22.6387 25.0684 17.5357
436 1 23.4895 25.3626 17.1452
65 1 10.374 25.8746 17.7723
438 1 22.42 26.0088 17.4547
63 1 8.79196 26.5282 17.8232
443 1 24.4046 27.822 17.761
445 1 25.6478 28.4247 17.3506
446 1 26.6544 28.5825 17.4753
311 1 21.6982 6.24927 18.0348
23 1 29.4607 8.98062 18.0163
73 1 7.70665 20.3511 17.9201
72 1 8.40893 20.7428 18.3781
70 1 7.68525 22.2671 18.2801
67 1 9.13175 24.2993 17.9351
66 1 9.67066 25.1544 17.8853
439 1 22.7334 25.3583 18.1192
64 1 9.54058 26.0989 18.3734
441 1 23.0582 26.627 18.046
442 1 23.9866 27.0665 18.0896
444 1 25.3295 27.6462 17.9624
313 1 21.8496 7.55417 18.5817
314 1 21.487 8.464 18.7775
27 1 28.8865 8.36823 19.2311
25 1 30.4459 8.47236 18.9816
315 1 22.2962 8.95257 18.9849
24 1 29.8842 9.19357 18.8341
316 1 22.7004 9.79601 18.732
317 1 23.3919 10.4564 18.8325
401 1 25.5872 14.9555 18.8618
402 1 26.5378 14.9113 18.6122
71 1 7.90742 21.4658 18.8136
62 1 8.70937 26.4183 18.809
440 1 23.2682 25.9336 18.671
29 1 30.2878 7.42474 19.8818
28 1 29.3619 7.88614 19.9252
26 1 29.6748 8.92987 19.3774
318 1 23.9201 10.1198 19.5534
61 1 8.5466 26.3741 19.7442
58 1 6.556 26.672 19.5103
59 1 7.47543 27.0038 19.3117
60 1 8.26159 27.2679 19.9192
51 1 3.75613 29.1249 19.5913
49 1 2.00574 29.3727 19.756
50 1 2.9367 29.5337 19.3994
48 1 2.05613 0.266107 20.0951
30 1 30.3855 6.87477 20.6617
319 1 24.0623 10.767 20.3418
322 1 24.0276 11.0307 20.2968
321 1 24.6993 11.6232 20.0752
57 1 6.04776 26.4102 20.299
56 1 6.80941 26.9618 20.2061
55 1 6.40219 27.8378 20.1498
54 1 5.68972 28.2371 20.5696
53 1 5.20338 28.9525 20.1668
52 1 4.31604 29.412 20.2732
47 1 2.22733 0.867937 20.7939
36 1 0.489894 4.81362 21.2476
32 1 0.524726 6.06529 20.9136
34 1 0.46948 6.3074 21.3129
31 1 -0.306072 6.54706 21.1124
320 1 24.3527 11.4276 21.0209
323 1 23.5309 11.4643 20.9852
400 1 23.4122 22.2501 21.2393
398 1 23.7123 22.4842 21.4057
46 1 1.66809 1.27919 21.5006
45 1 1.13921 1.99998 21.8706
37 1 0.622055 5.2135 22.1106
35 1 0.803931 5.46458 21.884
33 1 1.21932 5.8004 21.5234
329 1 21.9329 9.37076 22.1135
324 1 23.1109 11.2959 21.8542
394 1 24.6036 19.5652 21.9341
397 1 24.0534 21.6148 21.471
399 1 23.0452 23.1305 21.503
44 1 1.21988 2.07755 22.8476
38 1 0.47756 4.3359 22.2972
328 1 22.6045 8.73227 22.3855
330 1 21.3817 9.96182 22.7684
326 1 22.5997 10.2852 22.5748
332 1 20.2382 10.777 22.8393
325 1 22.4581 11.3036 22.5731
333 1 20.0194 11.5457 22.321
392 1 25.4763 19.1265 22.7151
395 1 24.8205 20.2652 22.6111
393 1 25.3125 20.0213 22.4182
396 1 24.4083 20.985 22.1451
40 1 0.52533 2.78188 23.2816
39 1 0.326317 3.68361 22.9885
327 1 22.7875 9.44586 23.054
335 1 18.926 10.6709 23.122
331 1 20.7134 10.2472 23.5381
336 1 18.6597 11.6479 23.474
334 1 19.3876 11.5621 22.9859
391 1 25.7815 18.6011 23.457
42 1 0.611924 2.03339 23.6882
43 1 1.35394 1.49462 23.6473
41 1 0.144873 2.78042 24.1414
390 1 25.6084 18.0332 24.2153
338 1 18.4849 10.5351 24.4384
337 1 18.5598 11.4444 24.408
342 1 17.6401 11.0225 25.3224
339 1 19.0293 11.0618 25.0964
385 1 23.5075 16.6921 25.6192
388 1 24.9411 16.8326 25.6031
384 1 23.1865 17.3717 25.052
389 1 25.1979 17.5143 25.0097
383 1 22.9824 18.0685 25.7051
343 1 17.1484 11.0947 26.1724
341 1 17.8653 11.8309 25.9174
340 1 18.7815 11.6997 25.8653
346 1 17.8543 13.4925 26.1906
381 1 21.5382 16.9716 26.2497
382 1 22.083 17.7267 25.9887
387 1 24.1074 17.3204 25.8865
344 1 17.3157 11.9211 26.5838
345 1 17.4259 12.8586 26.7556
347 1 18.1871 13.4369 27.0766
349 1 18.764 13.8146 26.6775
348 1 18.0243 14.3248 26.7956
386 1 23.4624 16.9436 26.5181
380 1 21.0774 17.7001 26.4521
378 1 19.863 18.0992 27.032
379 1 20.7029 18.581 26.7028
350 1 18.1974 14.1577 27.366
372 1 15.9974 15.5654 27.4072
374 1 17.1947 15.9457 27.4479
373 1 16.3684 16.4388 27.4565
376 1 18.4815 17.0049 27.77
375 1 17.889 16.5281 27.1468
377 1 19.0386 17.7758 27.5869
353 1 18.5121 14.5337 28.4719
351 1 18.5856 14.4127 28.2408
371 1 15.3547 15.1816 28.0126
352 1 19.4169 14.1645 28.5946
370 1 15.5303 15.0711 28.9312
354 1 18.3202 15.075 29.1862