LAMMPS data file via write_data, version 19 Nov 2024, timestep = 500000, units = lj

2000 atoms
2 atom types
999 bonds
1 bond types

0 30 xlo xhi
0 30 ylo yhi
0 30 zlo zhi

Masses

1 1
2 1

PairIJ Coeffs # lj/cut

1 1 1 1 1.12246
1 2 1 1 1.12246
2 2 1 1 1.12246

Bond Coeffs # fene

1 30 1.5 1 1

Atoms # bond

1469 0 2 3.457997231793192 2.4035103385852303 29.94548806946613 7 6 -2
1375 0 2 6.412513070066854 2.438478107804967 0.5810693429804502 3 -2 -3
1593 0 2 2.0580288145217196 2.15700555289405 0.9024123732822702 2 6 2
1341 0 2 25.907150054104196 1.0367295610393852 29.254329205247807 -5 -3 -3
1641 0 2 9.221865787096474 4.031160109384804 0.06934533360386928 1 2 0
1077 0 2 13.824327478297896 3.233029310747889 1.81404509731038 3 -4 -5
1339 0 2 6.2804951584911315 3.00240407054798 29.37349925762673 3 -2 -5
1131 0 2 3.8863780834459662 4.064629775660482 1.850167039877057 -4 0 2
1185 0 2 23.43360241579312 3.544331461573066 0.5900973877455895 -4 0 -3
1811 0 2 4.602441198861882 6.949314846536682 1.3753778349777002 2 1 -1
1479 0 2 25.179222812724976 6.064831307686001 29.766403875214355 -2 2 3
1902 0 2 29.43385500381286 6.177636482353196 0.774290997881684 2 3 -4
174 1 1 21.25145976396128 7.870693675256489 29.976507558268516 0 -1 -1
1566 0 2 23.324150348923293 5.650820636216015 0.1485448633536277 3 4 4
1623 0 2 9.010208938440812 9.361065286058961 2.73306543080719 -1 2 2
172 1 1 20.57964218488993 6.393201133751512 0.4637178255613923 0 -1 0
173 1 1 21.244071210023083 7.032990811348214 0.45854205651020075 0 -1 0
1487 0 2 0.9970210673008588 8.286892134834588 29.3258603540569 5 -2 -1
1812 0 2 27.49361021976878 6.89150567862201 0.27288624590911614 0 3 -3
283 1 1 20.459590560064754 12.050524216251116 29.92646118214748 0 -1 -1
1132 0 2 27.853998572355465 10.543205913679342 28.522345976566875 -3 -2 -4
281 1 1 19.185470249574042 10.826423758769732 0.16282897363795654 0 -1 0
280 1 1 18.435310643229325 11.361899112887107 0.5241034262069016 0 -1 0
286 1 1 21.845786375940452 12.482433160416583 0.803586133540111 0 -1 0
1502 0 2 2.1431842339337437 12.324014921454697 0.2761054931767007 1 4 -1
303 1 1 22.53811893435658 12.207525816552588 29.889694568718685 0 -1 -1
302 1 1 22.68392246991945 13.114149853982939 0.24232128457593455 0 -1 0
1210 0 2 24.154599683264294 11.700393785469258 29.00678429437347 0 7 -4
304 1 1 22.245166236373358 12.427121791678218 29.05046954484415 0 -1 -1
278 1 1 17.662472323606135 12.324705335478557 1.644878920906202 0 -1 0
299 1 1 24.031988935622625 13.677781738927036 0.12259974897861389 0 -1 0
273 1 1 16.797187125059963 14.75750242126167 0.8038628764652606 0 -1 0
1777 0 2 21.064684829781196 13.798301152719397 0.3344634838227871 -4 3 -3
270 1 1 16.85634277791895 16.11171269233359 1.0556316883292223 0 -1 0
1482 0 2 24.89892119929427 15.773919299889569 29.429646018125307 1 -1 -3
22 1 1 25.6820916403621 17.62795527914116 0.35307188027629705 0 -1 1
20 1 1 26.534598836181885 19.329422599590856 0.6305162210696916 0 -1 1
140 1 1 13.689557275569904 19.17065311770695 0.579907359746326 0 -1 0
19 1 1 27.161724743619963 18.99988530824305 29.916539795051897 0 -1 0
13 1 1 0.5674528930800667 21.391183611993323 0.7802068317113432 1 -1 1
7 1 1 3.7272696476091958 21.80234333342629 0.9266721246680834 1 -1 1
12 1 1 0.060456472568357164 21.315727719733488 29.932092255966893 1 -1 0
15 1 1 28.887246534977166 21.58897985310017 1.1959845125768753 0 -1 1
14 1 1 29.795226266690808 21.45010420229259 1.4205567119766986 0 -1 1
1434 0 2 13.660858241047569 22.408136059480594 2.225217435740022 3 4 -6
1665 0 2 0.0353502468173625 24.63473223837248 0.1247017123937863 -1 1 1
1180 0 2 0.6775614933349963 25.566619262135855 1.1912027705753458 6 7 0
1749 0 2 4.152644199217231 24.574025249799874 2.700994632404855 1 2 -2
861 1 1 18.0396817992533 23.73276885857104 29.318030595326285 1 -1 0
860 1 1 18.478093227347344 23.478905025544798 0.12176940201348246 1 -1 1
1453 0 2 21.857984942691115 26.066262000670434 29.726055418732017 1 2 3
1013 0 2 28.370587729735277 24.372167441721036 1.1809336854612846 -2 0 2
1734 0 2 21.475954993523853 29.278451910748405 29.935897665869764 -8 -5 -4
372 1 1 26.539245829041246 28.482709706025805 0.8094933412879033 0 -1 0
373 1 1 27.138081544591873 28.0195597168253 1.4403989941721904 0 -1 0
371 1 1 26.56542712814652 27.623240130858278 0.3290406945944718 0 -1 0
374 1 1 27.64246284930674 28.1927248060118 0.5825395351939042 0 -1 0
1774 0 2 10.425213553419047 27.688310007598684 29.000054871481627 -2 0 -4
1442 0 2 12.900223919638533 0.9282371179695991 2.2455222156135375 1 -7 7
1026 0 2 21.072676543646086 0.6635105395831663 0.5553172794586031 3 4 2
1804 0 2 29.453760535298294 2.129008382652767 0.8807734894263893 3 2 -1
1382 0 2 15.908446898503685 4.19159938354882 0.03476061216583683 4 6 -2
1825 0 2 8.56199954575702 5.039389064522506 1.6065164500035236 2 5 6
171 1 1 19.981632665555182 6.8656238014227995 1.1483399829541319 0 -1 0
175 1 1 22.1772873627592 8.200447925674354 0.16894060129720653 0 -1 0
167 1 1 18.961135917496005 8.436487411220241 2.1565764376704344 0 -1 0
169 1 1 18.51618301071163 7.17109736839106 1.6725149472145935 0 -1 0
176 1 1 22.711715983256326 8.106361875608739 1.0033124396751831 0 -1 0
287 1 1 21.842697722732957 11.566825897860152 0.9332287577245826 0 -1 0
284 1 1 20.1456501739075 12.403942525431754 0.7521850274977361 0 -1 0
285 1 1 20.94585373089982 12.666502579366318 1.1847558496726611 0 -1 0
279 1 1 18.089879865011383 12.180534539999885 0.7444566925817352 0 -1 0
1439 0 2 29.454426401942946 13.642948577258394 3.391118635501516 -1 -3 2
1782 0 2 16.259456815628056 11.527284650486617 29.510528536907785 -5 -3 4
276 1 1 17.068236938950527 13.365950144711958 1.6119653778177885 0 -1 0
298 1 1 24.760369951917603 13.725756286646737 0.7651052813434625 0 -1 0
1048 0 2 10.250391316996035 14.328297290464716 0.44930438172706844 -5 -1 -8
274 1 1 16.133836834366473 14.314932070427513 1.4048817980928905 0 -1 0
1037 0 2 28.091131796770753 14.017563343527991 0.8528219331038689 -4 2 -2
272 1 1 17.574619292815118 14.672638374927352 0.2762915894660511 0 -1 0
1664 0 2 1.1432459419968244 17.393327888660412 29.64218567565319 -5 -1 3
271 1 1 17.422512585462428 15.625882374017834 0.4339589137152353 0 -1 0
1806 0 2 8.350920668650836 16.970928173607685 1.5229074282868083 -4 -1 4
269 1 1 17.64150600799844 16.382725681438753 1.5020775587540929 0 -1 0
142 1 1 13.440367889902376 17.32055833583515 0.32047329979413397 0 -1 0
143 1 1 13.026205818386865 16.874787563170738 1.1346699096941277 0 -1 0
141 1 1 13.784078190610337 18.233294756907764 0.329223485210272 0 -1 0
21 1 1 26.03658286485522 18.543166329407573 0.6367764352749838 0 -1 1
1284 0 2 8.350750559808366 19.43733910808861 0.7951564716553279 -4 0 5
139 1 1 12.868913520329336 19.246138245033062 1.1364026148111326 0 -1 0
1086 0 2 20.91657878135121 19.855509135613058 0.8998922486081085 2 4 3
1380 0 2 20.123250188281084 21.84950685116438 29.504359079849003 4 9 0
1152 0 2 27.500335038913338 19.728598889618702 2.9599002603840603 0 1 6
6 1 1 3.2254537107403727 22.607018558555783 1.2542806859017357 1 -1 1
1118 0 2 4.989653236090296 21.548072603119124 29.97923826895899 2 0 -1
1135 0 2 9.824967450115512 21.255897421568683 28.769593252944908 4 3 -3
5 1 1 2.4250143805637343 22.672364669149353 1.7706255615712254 1 -1 1
1239 0 2 27.761895054555893 21.747392555423044 0.921053576281897 1 1 1
4 1 1 2.2169111760943907 23.26279881383034 2.489884823626679 1 -1 1
1467 0 2 10.557302472364112 25.253717425861822 0.5261481065209744 -5 7 10
1697 0 2 6.954690220413661 24.169953556303867 0.7098011925689841 7 -2 -2
1587 0 2 16.118691041306985 25.185643217934597 0.7958635257457695 3 -8 -3
1441 0 2 19.67874148245807 28.39464744031341 0.0872726434235046 -3 1 -1
1035 0 2 6.769857896725085 27.518992088905673 2.6963209941563355 1 -3 1
1549 0 2 15.002458726639711 28.33503757121635 1.6126923850265065 3 -1 4
1706 0 2 17.411957900599926 27.999388854464023 0.1371618778484775 5 -7 4
1949 0 2 22.25486201005427 27.9016029650395 1.5181438318074127 -1 -3 4
1102 0 2 19.932629653772782 29.540824648613228 29.038522502331357 4 -3 0
375 1 1 28.549533164175074 28.191582223295523 0.3088599040259989 0 -1 0
1799 0 2 8.43077590012204 29.8833222033872 0.5231228299009641 -1 0 -1
1699 0 2 10.652004564731303 29.919899276843953 1.4343384872945115 1 2 -3
378 1 1 29.202390585379803 29.15524879982599 2.4046573086357923 0 -1 0
1791 0 2 8.467009414049263 2.8891781073883993 1.912664138472574 3 2 -1
1112 0 2 17.12854050707219 4.5644283174725455 3.2264703967230286 0 -2 2
1226 0 2 5.790115865750673 4.4053707055605384 1.7325081887426403 1 -3 -2
1629 0 2 4.340071751489861 5.197985629453192 0.5842963759198488 3 -5 1
1654 0 2 13.201923421185635 6.444331252567847 1.223732293260262 -1 3 -4
665 1 1 17.43853051619063 6.528717242476335 2.2129453814379927 1 0 0
170 1 1 19.39698626334475 6.90410908245649 1.8847805099102461 0 -1 0
664 1 1 17.87291924839051 6.921104810194874 2.972590051504962 1 0 0
168 1 1 19.095730134341025 7.9208214495506635 1.3983751336786259 0 -1 0
177 1 1 22.711356405583462 7.765891202503355 1.938216086373776 0 -1 0
703 1 1 3.8601573624173016 8.975653295166632 2.6070957191826714 1 0 0
704 1 1 4.699406915931342 9.330547801078 2.4691621819104643 1 0 0
166 1 1 18.227062794072264 8.946570852636988 2.5601534333278404 0 -1 0
1374 0 2 1.7490576479144764 9.30130814879048 2.303654071555814 0 6 2
705 1 1 5.281714465784756 9.108064719386865 1.7649455348011416 1 0 0
1084 0 2 7.665559574268359 9.189263004922998 1.903885130633886 -6 -3 -2
1652 0 2 10.523009704855149 9.864799836412875 0.47926002040397436 -7 2 -4
288 1 1 21.981908886968707 11.48859782222568 1.905512538659679 0 -1 0
1573 0 2 24.646495395244706 11.420653035009867 0.5580524318679395 0 -4 2
1907 0 2 12.812744502445538 13.090513385455818 2.0200005154347793 2 -1 4
155 1 1 14.78002401199876 14.118554371545061 2.5567173493751256 0 -1 0
277 1 1 18.048198027356573 13.132105250117503 1.507393095776776 0 -1 0
291 1 1 21.735332262180332 13.63086728468175 2.236960175525481 0 -1 0
1831 0 2 1.2893329685279702 14.569944476144935 3.0941562277785164 -5 1 3
275 1 1 16.875233035614325 14.232414158753086 1.9974992678523078 0 -1 0
292 1 1 22.043781510493993 14.002904596121923 1.4141999438603643 0 -1 0
297 1 1 24.046715773030716 13.86237628127485 1.391741990642141 0 -1 0
293 1 1 22.051976075891154 14.993011155911963 1.231609455094938 0 -1 0
296 1 1 24.140842820980193 14.835202554252222 1.4133079286199508 0 -1 0
1114 0 2 26.139532369389848 11.92636307836759 2.716862430667261 0 3 -2
1767 0 2 6.154307616106205 15.471763628842988 1.241079604154718 2 0 2
295 1 1 23.433816916175033 15.308119500670955 1.8051256905605548 0 -1 0
294 1 1 23.09223191719235 15.11870991762998 0.9806449746106073 0 -1 0
1392 0 2 4.264845396697332 17.59886875772187 3.306003887629674 -2 3 2
268 1 1 18.577592356254808 16.478213873302174 1.7224053758931281 0 -1 0
1617 0 2 9.078148169325639 18.083613526268504 2.7577438732802873 -1 -1 3
1703 0 2 27.214149536541658 17.728052042379627 1.2488767238368377 5 3 1
420 1 1 15.039354833715672 20.143801296752788 2.010359930359837 1 -1 0
421 1 1 15.764862323716008 20.386159870206146 1.3835670483758882 1 -1 0
3 1 1 2.6162552702469215 22.870735088176954 3.292160950293291 1 -1 1
1230 0 2 24.8071310126837 23.87044958513666 1.347445263174789 -4 -6 4
1913 0 2 4.330516013904039 26.119965198852917 0.1573056322906922 5 -4 7
1242 0 2 9.697331258762006 24.304367261572814 1.4907521711529181 5 4 1
1314 0 2 10.741419346377866 27.061789066435804 1.8137585574382615 -3 -4 0
1495 0 2 8.207601671773872 27.06683727147866 2.4018963175550145 1 -5 -2
1872 0 2 15.797760407295812 28.630708397025103 0.4222242461668814 0 -10 5
1397 0 2 3.1262005589923185 28.35477021549785 0.8774998595498811 -4 -2 6
1836 0 2 18.284521678138084 26.425993173031753 1.0847726667300157 2 -1 -2
1952 0 2 22.726199686891064 29.326087807054446 1.584092092366155 -1 -1 4
1635 0 2 16.665873918302236 29.3639953874545 3.1192060358725824 7 -4 -2
380 1 1 0.23068440710423857 29.011601795618503 2.090651890733984 1 -1 0
376 1 1 28.48495650110495 28.482295152147326 1.2392951930458738 0 -1 0
379 1 1 29.87895342194061 29.767154446643477 2.519308063447172 0 -1 0
1809 0 2 19.536471171794965 28.520254426817495 3.451226769090061 6 -2 -4
1234 0 2 25.984358021339457 1.0829763625969373 3.5528245964813863 -5 -1 1
1758 0 2 25.361654413422766 2.6467316392077866 3.7560559396749937 0 6 -2
1614 0 2 20.467336741655853 1.7365517197184923 2.061871581685563 0 4 4
1332 0 2 28.494099668370207 5.17666055714732 2.108181734989093 -3 0 3
666 1 1 16.9733641891749 6.595504638678274 1.379034543673779 1 0 0
1599 0 2 1.075114853808418 7.026835366195199 3.15184090754702 3 -5 -1
663 1 1 18.609044052591273 7.585259909198786 2.96497279176886 1 0 0
701 1 1 3.1934541820849893 7.801852246966564 2.4667335749461587 1 0 0
178 1 1 22.77937777589522 8.68566186777733 2.202360606564882 0 -1 0
702 1 1 3.2898953120837557 8.589667046335942 1.945641134502569 1 0 0
164 1 1 17.12338013569817 10.140935801503169 3.1136976951487036 0 -1 0
706 1 1 5.854025139363626 9.506881400456393 2.4394355687565055 1 0 0
163 1 1 16.477810313311778 10.752399742758094 3.468792116234845 0 -1 0
1343 0 2 29.32057767763998 11.441789777246589 1.7141298853811473 -2 5 -5
162 1 1 16.743188644929024 11.680125152301844 3.518235235759964 0 -1 0
289 1 1 21.952904589786385 12.262413346083468 2.489905038822665 0 -1 0
157 1 1 14.679914242835864 12.706537365148709 2.6089650999387155 0 -1 0
290 1 1 21.17478784945431 12.82314561303602 2.231176581091045 0 -1 0
156 1 1 14.470826709249664 13.391723517603056 1.9959719390131834 0 -1 0
154 1 1 14.09371840081782 13.911447046378767 3.2132228592157843 0 -1 0
1082 0 2 3.818886673327239 13.210320122524104 1.929385496443332 1 1 -1
1876 0 2 22.007883231238996 17.005248628938798 2.174203810896408 1 2 -1
1173 0 2 27.669047592437572 16.291333791119417 3.4536267827542377 2 6 -1
1880 0 2 2.0573748587277096 16.774491086836512 2.4302506566222952 1 3 -2
146 1 1 13.20603298050788 16.427098021169428 2.4277597044243913 0 -1 0
145 1 1 13.691962133109305 17.22097784413489 2.1650892454968904 0 -1 0
267 1 1 18.26773950826876 16.69465938798461 2.6257374684090635 0 -1 0
1328 0 2 10.400582144848102 16.819237930198234 1.2122999413183986 0 5 -3
144 1 1 14.001318264624919 17.00878089666164 1.2525078796299036 0 -1 0
136 1 1 11.814808425400809 19.24913182825775 2.389261503896191 0 -1 0
137 1 1 11.825579087744432 18.24472635009804 2.1431324056391956 0 -1 0
134 1 1 10.913810746343355 19.782986377545868 4.053482589005113 0 -1 0
138 1 1 12.648873046466063 18.570170581398155 1.7619666464927577 0 -1 0
1981 0 2 27.69458227659426 18.25285890601203 2.4389646625136434 1 0 3
419 1 1 14.343603138897329 20.387215026176353 2.692430637118076 1 -1 0
1982 0 2 4.005638141967862 20.933856467785706 3.226951052926061 2 6 -2
423 1 1 16.717295882001142 21.709836130205645 1.9140099236386883 1 -1 0
1 1 1 2.3144464955908215 21.791739669716303 2.1635305712868744 1 -1 1
2 1 1 2.09047221926349 22.095697339559187 3.0414325613032456 1 -1 1
422 1 1 16.56388153872137 20.75044374137475 1.7815029268641447 1 -1 0
1275 0 2 15.087454532655457 24.42084219588983 1.9595812494142042 1 3 -3
1528 0 2 19.578118074746904 27.212607085708424 1.3488022309615035 0 0 5
1891 0 2 20.245367981104934 25.96073075737568 4.054011760976219 -6 -2 -8
1895 0 2 19.93182446236172 27.57392837065154 3.48841564461284 4 -4 6
1024 0 2 25.150793026390783 25.77519157181856 2.8852647829501206 -5 2 2
1347 0 2 1.054077203455967 28.243179416455856 4.957334673397906 8 2 0
1972 0 2 27.87430914246656 27.020664040430358 2.098980939144528 -3 1 -2
381 1 1 0.9001831665969722 29.145750616145527 2.7757352977858782 1 -1 0
377 1 1 28.461012714082838 29.32881754759823 1.7326811215330975 0 -1 0
1970 0 2 3.828674315813179 0.9295013197483808 4.6584013676939025 1 2 -2
1567 0 2 10.65079064196796 1.670111053303237 2.521556644874251 10 2 -6
1792 0 2 18.729191098494486 3.0124838990093545 2.9089552555794342 1 1 -3
1793 0 2 25.674737107138675 4.283757867853646 4.729793736825185 2 -1 3
1337 0 2 9.158187369432246 7.577195526715624 3.5143418749152584 1 -1 -1
667 1 1 16.433846706658986 7.370302227637874 1.7056410223933287 1 0 0
668 1 1 16.003099927200573 8.092334722701073 2.3073046662782133 1 0 0
700 1 1 2.7188665020236975 8.37508715969897 3.0755326478109493 1 0 0
669 1 1 15.134648937929402 8.575354466123011 2.4851815071671233 1 0 0
671 1 1 14.203948470122164 9.242887327807082 3.1623876358216956 1 0 0
1426 0 2 20.548897436377555 9.361087923389052 3.2340450054877836 -3 -2 -5
179 1 1 21.78277681445457 8.681039322502157 2.466437927528124 0 -1 0
698 1 1 1.7514948163851154 9.303168685182198 4.026824467844284 1 0 0
165 1 1 17.366092225519616 9.349631214471557 2.627766028523651 0 -1 0
180 1 1 21.66027673687445 8.978822202555872 3.390978792031679 0 -1 0
1517 0 2 25.451922993839087 12.913514070247404 0.9814074295790702 -1 -3 0
1994 0 2 3.256269659960532 10.634899990875784 4.215564733534909 -1 -3 4
707 1 1 6.662583647805591 9.892012649097476 2.7974357253882447 1 0 0
158 1 1 14.454812672782008 11.83991463159721 2.98073583007661 0 -1 0
161 1 1 15.817305378054867 11.608336089743895 3.930136075461959 0 -1 0
153 1 1 13.89782079833706 14.268457239246548 4.066694272567022 0 -1 0
1536 0 2 17.711789705096592 16.068721802965246 4.905090097342897 4 -4 2
147 1 1 12.284434698248067 16.29314420803747 2.5261684187743962 0 -1 0
266 1 1 18.289727854738757 17.708024016805904 2.7717217033807984 0 -1 0
1512 0 2 17.193309694063856 17.694930667226814 2.3349776188552456 4 2 -1
133 1 1 10.052117520444517 19.73501538960528 3.6971917850689873 0 -1 0
135 1 1 11.30375348614703 19.348904582078816 3.2393132284052757 0 -1 0
416 1 1 13.025179850044607 20.045780401115437 3.7384695028652266 1 -1 0
1229 0 2 15.285639956241784 20.614687868151208 4.198684164361441 1 -3 3
1752 0 2 20.775309320647988 21.687583254006913 3.949186884945223 1 4 0
418 1 1 14.610867540934379 21.16548994060562 3.3578519243183766 1 -1 0
1257 0 2 11.357119822550597 20.781953846556867 3.4692661388358035 -2 2 0
424 1 1 16.992369995278654 22.38940679676667 2.567492249196598 1 -1 0
999 1 1 29.33029201544665 21.513090283225967 2.829040863123143 0 -1 0
425 1 1 17.7646781471418 22.831428493209923 2.990142629488674 1 -1 0
998 1 1 29.3626086776917 21.6072906306934 3.847164891696497 0 -1 0
1000 1 1 0.27824296354161965 21.324593675168835 2.8940121383706217 1 -1 0
1746 0 2 15.568761490186882 22.324142160238722 1.5603604877344353 0 2 3
426 1 1 16.984863236716027 23.38185618099022 2.948038513967521 1 -1 0
403 1 1 8.831725135808552 23.49208892062123 3.8292434091326544 1 -1 0
402 1 1 7.949184993910593 23.622911398131446 3.5168663077891433 1 -1 0
1682 0 2 9.921168533275072 23.938972926261492 5.269895505451831 0 -3 -1
398 1 1 7.3990965564576445 25.601332908470855 3.469676569242502 1 -1 0
1104 0 2 2.2559782495124976 26.247502778206037 3.7081356586027083 7 4 0
1784 0 2 22.449525790564547 27.62667215724633 3.5562112529891223 5 -6 6
1311 0 2 9.491405629523209 28.864281639706764 2.622731903923661 9 1 3
1423 0 2 23.039223993188564 0.5431808667799061 1.8681010958082909 -4 -2 -1
382 1 1 0.6280819334892827 28.615107308711146 3.5421010649466145 1 -1 0
385 1 1 2.5742246654973133 28.913974143910334 3.857870521419053 1 -1 0
1906 0 2 15.832404854876845 28.372529579470413 4.698649969016921 -4 -6 -3
1208 0 2 24.97124882615272 0.30191646227485863 4.748335759243537 2 -4 -5
1642 0 2 1.2436751995235877 0.9709751650434635 3.411193058436056 1 -3 -2
1197 0 2 19.552437470398335 0.08274872917946081 2.984324540493563 -3 2 -3
1129 0 2 11.836138403946649 1.819974141065946 3.5595191811323854 1 2 1
650 1 1 19.59818715482116 3.1133390781711263 4.94442071161726 1 0 0
652 1 1 18.75622714478193 2.8603589383934023 4.227699130092935 1 0 0
1921 0 2 19.192516158688402 4.141208979715976 2.359091103077789 0 1 4
1155 0 2 13.251478208725995 6.552463088746733 4.196570021072643 -6 0 5
1075 0 2 29.963217208974932 7.73891268210025 4.450969194999591 -6 1 -4
662 1 1 19.380253977664662 7.990173640618306 3.293529962837378 1 0 0
661 1 1 19.39865963134995 7.244602317800352 4.004548836541972 1 0 0
1447 0 2 5.906921887638456 8.498510996301771 3.0763271206909217 3 -3 0
676 1 1 11.325236436604389 8.384170603351699 5.5625919501530685 1 0 0
673 1 1 12.758723078835336 9.08639396441149 4.207258758862767 1 0 0
699 1 1 2.6224892785458116 9.052041827526837 3.7634932500511513 1 0 0
672 1 1 13.363531300518979 8.733536425859533 3.5148514046979944 1 0 0
670 1 1 14.293532392221234 8.322725956033743 2.8836848348880895 1 0 0
181 1 1 21.632766230379982 9.165146837810704 4.334055639078725 0 -1 0
697 1 1 1.7342494994691218 9.925684494897707 4.709788399194138 1 0 0
708 1 1 6.905364515917815 10.736377561606366 3.0784820765202046 1 0 0
1580 0 2 9.23109193989576 13.149407329231096 2.3910396898781476 2 -1 -3
159 1 1 14.071549231821264 11.694257476180066 3.836515384466922 0 -1 0
160 1 1 14.932772869536745 11.530566263860072 4.257472189223789 0 -1 0
1376 0 2 1.161341661979903 11.628336549701752 4.413896004773127 4 -1 -2
1221 0 2 9.825093443984622 12.942177064210924 4.707270564848621 3 0 0
248 1 1 14.201805735292231 12.853762168363097 3.6797376602282017 0 -1 0
249 1 1 14.941834896276355 12.741687613397735 4.362346970282341 0 -1 0
152 1 1 13.29894773797431 14.728300358461961 3.445769091001029 0 -1 0
1090 0 2 10.621408343999994 16.443441554292157 4.6229099092603825 3 -3 -1
148 1 1 11.733561493242453 15.497390166324818 2.8327532740842343 0 -1 0
1296 0 2 14.825307435814702 17.790720077378715 4.299023137537751 3 4 5
1105 0 2 7.804830145653711 17.300702302814308 4.3866724470718275 4 -6 3
265 1 1 19.163464087374074 17.94689415446898 3.2570290499099612 0 -1 0
131 1 1 9.364885716132424 18.88121694949364 4.319039227337357 0 -1 0
132 1 1 10.296685556790633 18.9442928812794 4.222865175451953 0 -1 0
264 1 1 18.750965024826737 18.385340185476288 3.9968304235714243 0 -1 0
1817 0 2 7.4293491656699056 21.87927514346895 3.878120139566847 5 -1 1
415 1 1 12.819890528050076 19.25593012665 4.247346464180417 1 -1 0
417 1 1 13.861343786650156 20.5277481733979 3.607260461108209 1 -1 0
996 1 1 27.81109676844749 21.658985607281476 4.584275015242886 0 -1 0
997 1 1 28.430759152616226 21.442455393819397 3.8855437550960983 0 -1 0
1937 0 2 1.9926268461896004 21.109630209881153 4.151312723618066 3 -5 -2
995 1 1 26.887464123662888 21.610240863023524 4.330284450158788 0 -1 0
404 1 1 8.41564208458327 22.626722761511346 3.9316137775333804 1 -1 0
1360 0 2 12.271166692916417 22.10532974715462 3.652705087499503 -1 -3 3
427 1 1 17.060505628078303 23.919942617550596 3.887132034347604 1 -1 0
1605 0 2 20.43202034930399 23.64950331676238 2.3019436899923846 -2 5 4
401 1 1 7.325417063839773 23.77422912011342 4.175317532654167 1 -1 0
1378 0 2 1.5379466659050194 25.4194493913107 2.9128001263523053 1 -4 6
400 1 1 7.404473044683418 24.430301666054042 4.890777496123936 1 -1 0
1064 0 2 22.386465999954286 25.82353903665195 3.724258473453652 1 -2 2
397 1 1 6.498723537252337 25.24485907359626 3.4628519059494445 1 -1 0
399 1 1 7.5780970051258105 24.768113368648375 4.0084629367470095 1 -1 0
1909 0 2 24.225599014861675 24.569764147833055 4.307379953584484 3 -3 0
390 1 1 3.5301964396225882 27.085858418980322 4.12792329109918 1 -1 0
1277 0 2 25.314645528092573 28.877251215516246 4.823975020512633 1 -1 2
389 1 1 4.197704878208635 27.506550523853857 3.54133586407788 1 -1 0
386 1 1 3.2052121916916225 29.528597907921167 4.208303916734763 1 -1 0
1088 0 2 12.464982350158522 29.150660267118507 3.7009502568066988 5 2 -3
383 1 1 1.0708873541023431 29.331296619661686 3.9382574016192198 1 -1 0
384 1 1 1.8003788223641557 28.97690823298943 4.453079141376126 1 -1 0
1513 0 2 4.663925791769724 0.933315327161812 5.460137786433493 1 -1 2
649 1 1 20.137774392425303 3.357911646925284 5.669634004180898 1 0 0
1594 0 2 3.796977872747132 2.166688403771725 4.614534758478769 6 -8 -6
651 1 1 19.737309548780253 2.7634913729726547 4.080437578887791 1 0 0
648 1 1 20.62965782800863 3.0547212885554145 4.903527324882437 1 0 0
1967 0 2 13.296855184772935 1.5323642708664948 3.9389171405691537 5 1 -2
647 1 1 21.347433553502874 3.654532055299669 5.002589023537677 1 0 0
653 1 1 17.940552606045713 2.9333648136662234 3.6728815428342374 1 0 0
654 1 1 18.059648991171873 3.863807749598305 3.533796326174995 1 0 0
655 1 1 17.72941961470169 4.405557633411078 4.229873991525448 1 0 0
1033 0 2 11.247124957703939 5.952071104190357 4.251688572337171 0 4 6
656 1 1 17.935818333581054 5.3313060529510485 4.2163024959439035 1 0 0
1448 0 2 28.38740893807027 4.418438329672684 5.450086208719019 4 1 -6
1240 0 2 15.324829367157834 6.357300130249508 2.4507609621102397 -2 -2 -2
677 1 1 10.438069246189588 8.056551418006299 5.383590136561722 1 0 0
675 1 1 12.108982565135609 8.728892799083479 5.151147562411651 1 0 0
674 1 1 12.140465839090533 8.365935153843507 4.229423704409856 1 0 0
182 1 1 21.7145368063151 10.103380930409536 4.277142755025465 0 -1 0
712 1 1 5.198311226470462 10.510867775374782 5.230642171779307 1 0 0
711 1 1 6.099129685033584 10.255866108911274 5.406776269815246 1 0 0
710 1 1 6.670795812065034 10.877055922549836 4.817631546429413 1 0 0
1550 0 2 19.215892966934454 8.344084766865793 5.8323228216748575 1 3 4
709 1 1 6.825182159737499 10.452622784311206 3.9908579539626134 1 0 0
183 1 1 22.371735439796826 10.845988181813068 4.228492843973592 0 -1 0
696 1 1 1.1685730322044872 9.97446740339139 5.5249305255735495 1 0 0
244 1 1 14.159288281200702 11.32100157943072 5.728741720135421 0 -1 0
1801 0 2 25.646103044912103 11.854094750307897 3.615074198919235 -2 3 5
187 1 1 21.22670440829455 11.679576290015525 5.463595955754671 0 -1 0
185 1 1 21.828213666327805 12.170732596596885 3.909319919873137 0 -1 0
250 1 1 15.865533327034559 12.590340754174093 4.658459722839709 0 -1 0
251 1 1 16.428452474845724 11.955530675931822 5.202330536570958 0 -1 0
1130 0 2 20.037722732353156 12.612687840914878 3.8839481775880467 3 1 -1
247 1 1 13.646511942278519 12.827688798098396 4.47772708876367 0 -1 0
254 1 1 16.474363328194052 13.686243324461438 6.436009157573578 0 -1 0
151 1 1 12.46200462104659 14.470331367941847 3.359888238099822 0 -1 0
1678 0 2 27.30546152579599 14.713496062424456 4.568336144501942 1 3 0
150 1 1 12.63901241165271 15.379591849650376 3.778914455004118 0 -1 0
124 1 1 7.403918246810309 16.269976989785842 5.005082712753695 0 -1 0
125 1 1 7.8167857413105555 15.769866126349807 5.63348728778752 0 -1 0
149 1 1 11.864232531940031 15.925630256816778 3.7669816945973333 0 -1 0
262 1 1 17.540195043027968 17.41815432833435 4.884747761424289 0 -1 0
263 1 1 18.124217014145046 17.74141377152722 4.262170841975199 0 -1 0
130 1 1 9.323123119049871 17.947349348409244 4.157560450134803 0 -1 0
1079 0 2 18.88203498039134 18.763003029458176 6.12592477281411 -1 -5 0
1950 0 2 4.103614673147478 17.965183432683627 4.443950843760717 -2 1 -1
1826 0 2 7.893533536920032 19.45443114140754 4.209466547127043 3 3 3
410 1 1 10.166896741365015 20.081174165700208 5.30578635232836 1 -1 0
414 1 1 11.912435620693667 19.094701348074004 4.428486518243203 1 -1 0
1965 0 2 20.24845900564413 19.083567667941107 6.147125720875736 -2 -4 -2
991 1 1 27.091394753955843 19.33203835226996 5.3603972705061445 0 -1 0
992 1 1 27.688076780464755 19.44441011291083 4.542150351399118 0 -1 0
407 1 1 9.802593278081291 21.50216891639692 4.753145831523009 1 -1 0
993 1 1 26.870954708663806 19.813168849544645 4.06145943321161 0 -1 0
406 1 1 9.02600218389424 22.028717212876003 4.881694937007936 1 -1 0
994 1 1 27.206837781952395 20.686599074917787 4.114802498871134 0 -1 0
405 1 1 9.355748594602273 22.26874677781594 4.013462524686405 1 -1 0
1078 0 2 12.143573400117251 23.664714905111364 4.915225039130004 1 2 3
428 1 1 16.60720993367345 23.745148425363958 4.671526563330197 1 -1 0
1547 0 2 17.759579449417686 25.224774901369106 3.4198378108929326 -4 2 -3
396 1 1 5.682702453426959 25.284092472199454 3.964426832654417 1 -1 0
395 1 1 5.326346779981862 25.683037953379745 4.77680115103797 1 -1 0
1205 0 2 24.58833138172879 24.183523135931598 7.137355456118629 -3 0 1
391 1 1 3.7951559448535543 26.52927580037002 4.934776702173056 1 -1 0
394 1 1 4.874368564012989 26.048455449321718 5.5362856916388825 1 -1 0
1957 0 2 15.139002504571886 27.649150864154983 4.243319129318762 0 7 5
388 1 1 3.808053940711766 28.387995006006545 3.5880176922860585 1 -1 0
387 1 1 3.743954175334609 29.354698119520755 3.4595864910191985 1 -1 0
1721 0 2 29.70287330601421 29.406598370935075 4.344351159035276 1 0 -5
1020 0 2 27.255984566492245 29.82999662436475 4.990012053532518 4 1 6
1850 0 2 25.73903511978844 0.35546786547570813 5.756465503387141 1 3 5
646 1 1 21.57801964398677 2.958489752572038 5.753783683912895 1 0 0
644 1 1 22.78261219717556 3.857878484602563 5.376377038374795 1 0 0
645 1 1 22.257459632047976 3.1217393024028564 5.11425881684589 1 0 0
1854 0 2 29.14197388071321 1.4849061914401627 4.842885512866838 1 4 -3
1403 0 2 15.416045390102106 3.592248659551701 5.830371695523652 2 0 1
1606 0 2 21.167263777083573 3.7325251020813734 6.884717376870091 2 5 0
643 1 1 22.89412647671273 4.4422091864323345 6.122353503591552 1 0 0
657 1 1 17.737101242077806 5.746490241130745 5.033788716107138 1 0 0
1017 0 2 24.896250775875032 7.2964701102743295 5.01126691287737 -1 0 5
1807 0 2 2.0965882851857947 6.957605250343727 5.632096895738591 6 3 2
659 1 1 18.641345697075995 6.827174833277839 5.6431338930247374 1 0 0
660 1 1 19.252524995934714 6.970438225220547 4.948355147988196 1 0 0
713 1 1 4.578145796290253 10.424203647022354 5.922690100710932 1 0 0
678 1 1 9.923574889041323 8.77740432182556 5.137448353923854 1 0 0
199 1 1 18.345081945302127 10.545030861922807 6.982693529623342 0 -1 0
1126 0 2 23.466153141386982 7.539256973758038 5.459484662382831 -1 1 -2
1755 0 2 25.332390422477303 10.108272702348023 5.262024947174317 0 3 7
1896 0 2 9.237711671171217 10.560676603074894 3.668757127337059 6 4 0
243 1 1 13.266218353045806 10.917383855331359 5.654434155105402 0 -1 0
184 1 1 22.26404066852323 11.456963877458598 3.5403230018562493 0 -1 0
1344 0 2 0.7458840084274079 9.327614162145856 6.712795916949655 1 2 -1
695 1 1 0.6930893872425777 10.833702128809419 5.732437894635956 1 0 0