LAMMPS (19 Nov 2024)
OMP_NUM_THREADS environment is not set. Defaulting to 1 thread. (src/comm.cpp:99)
  using 1 OpenMP thread(s) per MPI task
Loaded 1 plugins from E:\Masteral\LAMMPS\LAMMPS 64-bit 19Nov2024\plugins
Reading data file ...
  orthogonal box = (0 0 0) to (30 30 30)
  1 by 1 by 1 MPI processor grid
  reading atoms ...
  1000 atoms
  scanning bonds ...
  1 = max bonds/atom
  orthogonal box = (0 0 0) to (30 30 30)
  1 by 1 by 1 MPI processor grid
  reading bonds ...
  990 bonds
Finding 1-2 1-3 1-4 neighbors ...
  special bond factors lj:    0        0        0       
  special bond factors coul:  0        0        0       
     2 = max # of 1-2 neighbors
     2 = max # of 1-3 neighbors
     4 = max # of 1-4 neighbors
     6 = max # of special neighbors
  special bonds CPU = 0.001 seconds
  read_data CPU = 0.017 seconds
ERROR: Create_atoms region region does not exist (src/create_atoms.cpp:130)
Last command: create_atoms 2 random 1000 12345 region solvreg overlap 0.2
