LAMMPS (19 Nov 2024)
OMP_NUM_THREADS environment is not set. Defaulting to 1 thread. (src/comm.cpp:99)
  using 1 OpenMP thread(s) per MPI task
Loaded 1 plugins from E:\Masteral\LAMMPS\LAMMPS 64-bit 19Nov2024\plugins
Reading data file ...
  orthogonal box = (0 0 0) to (30 30 30)
  1 by 1 by 1 MPI processor grid
  reading atoms ...
  1700 atoms
  scanning bonds ...
  1 = max bonds/atom
  orthogonal box = (0 0 0) to (30 30 30)
  1 by 1 by 1 MPI processor grid
  reading bonds ...
  693 bonds
Finding 1-2 1-3 1-4 neighbors ...
  special bond factors lj:    0        1        1       
  special bond factors coul:  0        0        0       
     2 = max # of 1-2 neighbors
     2 = max # of 1-3 neighbors
     4 = max # of 1-4 neighbors
     6 = max # of special neighbors
  special bonds CPU = 0.001 seconds
  read_data CPU = 0.025 seconds
Switching to 'neigh_modify every 1 delay 0 check yes' setting during minimization
Generated 0 of 1 mixed pair_coeff terms from geometric mixing rule
WARNING: Communication cutoff 1.42246 is shorter than a bond length based estimate of 1.7550000000000001. This may lead to errors. (src/comm.cpp:731)
Neighbor list info ...
  update: every = 1 steps, delay = 0 steps, check = yes
  max neighbors/atom: 2000, page size: 100000
  master list distance cutoff = 1.42246
  ghost atom cutoff = 1.42246
  binsize = 0.71123, bins = 43 43 43
  1 neighbor lists, perpetual/occasional/extra = 1 0 0
  (1) pair lj/cut, perpetual
      attributes: half, newton on
      pair build: half/bin/newton
      stencil: half/bin/3d
      bin: standard
Setting up cg style minimization ...
  Unit style    : lj
  Current step  : 0
WARNING: Communication cutoff 1.42246 is shorter than a bond length based estimate of 1.7550000000000001. This may lead to errors. (src/comm.cpp:731)
Per MPI rank memory allocation (min/avg/max) = 5.982 | 5.982 | 5.982 Mbytes
   Step          Temp          E_pair         E_mol          TotEng         Press     
         0   0              4445.4392      510363.79      514809.23      129773.06    
         1   0              4445.1279      510363.73      514808.85      129772.96    
Loop time of 0.000489 on 1 procs for 1 steps with 1700 atoms

0.0% CPU use with 1 MPI tasks x 1 OpenMP threads

Minimization stats:
  Stopping criterion = energy tolerance
  Energy initial, next-to-last, final = 
      514809.231414302   514809.231414302   514808.854214469
  Force two-norm initial, final = 3.9915113e+08 3.9912177e+08
  Force max component initial, final = 2.4844962e+08 2.4842772e+08
  Final line search alpha, max atom move = 4.0249609e-15 9.9991185e-07
  Iterations, force evaluations = 1 1

MPI task timing breakdown:
Section |  min time  |  avg time  |  max time  |%varavg| %total
---------------------------------------------------------------
Pair    | 0.000174   | 0.000174   | 0.000174   |   0.0 | 35.58
Bond    | 0.000181   | 0.000181   | 0.000181   |   0.0 | 37.01
Neigh   | 0          | 0          | 0          |   0.0 |  0.00
Comm    | 1.3e-05    | 1.3e-05    | 1.3e-05    |   0.0 |  2.66
Output  | 0          | 0          | 0          |   0.0 |  0.00
Modify  | 0          | 0          | 0          |   0.0 |  0.00
Other   |            | 0.000121   |            |       | 24.74

Nlocal:           1700 ave        1700 max        1700 min
Histogram: 1 0 0 0 0 0 0 0 0 0
Nghost:            711 ave         711 max         711 min
Histogram: 1 0 0 0 0 0 0 0 0 0
Neighs:           2390 ave        2390 max        2390 min
Histogram: 1 0 0 0 0 0 0 0 0 0

Total # of neighbors = 2390
Ave neighs/atom = 1.4058824
Ave special neighs/atom = 2.4211765
Neighbor list builds = 0
Dangerous builds = 0
Generated 0 of 1 mixed pair_coeff terms from geometric mixing rule
Setting up Verlet run ...
  Unit style    : lj
  Current step  : 1
  Time step     : 0.001
WARNING: Communication cutoff 1.42246 is shorter than a bond length based estimate of 1.7550000000000001. This may lead to errors. (src/comm.cpp:731)
Per MPI rank memory allocation (min/avg/max) = 4.857 | 4.857 | 4.857 Mbytes
   Step          Temp          E_pair         E_mol          TotEng         Press     
         1   0.1            4445.1279      510363.73      514809         129772.97    
WARNING: FENE bond too long: 2 501 502 22.4014673250598 (src/MOLECULE/bond_fene.cpp:89)
ERROR on proc 0: Bad FENE bond (src/MOLECULE/bond_fene.cpp:91)
Last command: run             10000
