ITEM: TIMESTEP
100000
ITEM: NUMBER OF ATOMS
2000
ITEM: BOX BOUNDS pp pp pp
0.0000000000000000e+00 3.0000000000000000e+01
0.0000000000000000e+00 3.0000000000000000e+01
0.0000000000000000e+00 3.0000000000000000e+01
ITEM: ATOMS id type xs ys zs
1 1 0.515382 0.288916 0.983725
2 1 0.521732 0.25777 0.97767
3 1 0.551914 0.264349 0.969765
4 1 0.580967 0.253779 0.978442
5 1 0.608867 0.239687 0.971962
6 1 0.59932 0.209803 0.975904
7 1 0.627346 0.208095 0.959137
8 1 0.652919 0.207086 0.979367
9 1 0.673768 0.223244 0.997159
10 1 0.657987 0.216721 0.0243881
11 1 0.653533 0.186214 0.0305469
12 1 0.622529 0.181017 0.0286214
13 1 0.607974 0.161508 0.0497183
14 1 0.634911 0.161246 0.0661608
15 1 0.641251 0.152284 0.0965645
16 1 0.614504 0.137485 0.10719
17 1 0.597228 0.164837 0.112546
18 1 0.610087 0.178517 0.138813
19 1 0.639194 0.19003 0.130331
20 1 0.661484 0.208919 0.117352
21 1 0.693492 0.210348 0.120771
22 1 0.71626 0.201434 0.0994241
23 1 0.704436 0.20601 0.0693616
24 1 0.700471 0.236444 0.0796583
25 1 0.717638 0.26058 0.0689057
26 1 0.738078 0.261501 0.0436311
27 1 0.759313 0.250194 0.064994
28 1 0.771487 0.235287 0.0392779
29 1 0.791634 0.259649 0.0297748
30 1 0.820331 0.268258 0.0413064
31 1 0.827965 0.292166 0.0215686
32 1 0.832457 0.323195 0.0168948
33 1 0.847996 0.350213 0.0213148
34 1 0.821144 0.363766 0.0309159
35 1 0.836259 0.391507 0.0226475
36 1 0.829808 0.417639 0.0400344
37 1 0.830022 0.392467 0.0602928
38 1 0.827785 0.369427 0.0824212
39 1 0.809833 0.349803 0.100592
40 1 0.818662 0.361905 0.128841
41 1 0.801139 0.380307 0.147775
42 1 0.77545 0.365245 0.159974
43 1 0.752629 0.351374 0.177316
44 1 0.741567 0.338459 0.150794
45 1 0.718044 0.357857 0.163313
46 1 0.695495 0.379743 0.159758
47 1 0.681875 0.372842 0.132213
48 1 0.651996 0.363024 0.136374
49 1 0.623378 0.37738 0.133595
50 1 0.626483 0.406845 0.146283
51 1 0.626283 0.424742 0.119268
52 1 0.612647 0.441672 0.143149
53 1 0.590733 0.457542 0.12621
54 1 0.595158 0.482271 0.105823
55 1 0.587923 0.498985 0.0803157
56 1 0.610074 0.518907 0.0915594
57 1 0.58503 0.536186 0.0817719
58 1 0.561969 0.556976 0.0880392
59 1 0.549084 0.528315 0.087764
60 1 0.535632 0.547023 0.10951
61 1 0.508859 0.565153 0.106335
62 1 0.503919 0.552364 0.077912
63 1 0.497649 0.521074 0.0757686
64 1 0.505989 0.519829 0.106843
65 1 0.49675 0.508689 0.135488
66 1 0.482004 0.535036 0.145546
67 1 0.458736 0.552889 0.133374
68 1 0.439021 0.575607 0.120457
69 1 0.430748 0.550486 0.102423
70 1 0.443492 0.532765 0.0788137
71 1 0.423609 0.508022 0.0761891
72 1 0.44467 0.495766 0.0972081
73 1 0.416764 0.48628 0.111291
74 1 0.405563 0.462549 0.0923523
75 1 0.383684 0.442076 0.0819303
76 1 0.367098 0.417276 0.0928511
77 1 0.355688 0.439691 0.113081
78 1 0.356601 0.470369 0.104707
79 1 0.348123 0.499033 0.115995
80 1 0.362837 0.525695 0.106371
81 1 0.354768 0.552113 0.0900531
82 1 0.361093 0.571292 0.0641432
83 1 0.33494 0.554037 0.057182
84 1 0.332972 0.534814 0.0310807
85 1 0.321781 0.522659 0.00353494
86 1 0.291326 0.529933 0.0118494
87 1 0.261879 0.517444 0.0111257
88 1 0.240458 0.541702 0.00668659
89 1 0.210576 0.537768 0.0184333
90 1 0.187057 0.559532 0.0202238
91 1 0.173539 0.588243 0.027275
92 1 0.173095 0.585608 0.995355
93 1 0.171895 0.591652 0.963739
94 1 0.202707 0.597971 0.957515
95 1 0.224078 0.609245 0.978242
96 1 0.237149 0.630387 0.958641
97 1 0.216777 0.638864 0.935556
98 1 0.205936 0.647627 0.906393
99 1 0.184501 0.646364 0.883369
100 1 0.15676 0.630422 0.87826
101 1 0.144385 0.650244 0.856197
102 1 0.130552 0.660226 0.82867
103 1 0.119097 0.680414 0.852037
104 1 0.133582 0.707947 0.858953
105 1 0.150148 0.73331 0.850101
106 1 0.132628 0.759454 0.854647
107 1 0.106745 0.755158 0.874159
108 1 0.0926416 0.729149 0.862099
109 1 0.0767448 0.701331 0.861471
110 1 0.0657279 0.673875 0.848451
111 1 0.0697997 0.66969 0.817284
112 1 0.0440412 0.674589 0.797758
113 1 0.0417648 0.688632 0.769019
114 1 0.0171047 0.705286 0.757343
115 1 0.987945 0.714742 0.765229
116 1 0.997523 0.72416 0.736423
117 1 0.978893 0.749509 0.730183
118 1 0.953076 0.76168 0.745283
119 1 0.953622 0.793337 0.741624
120 1 0.935534 0.806041 0.76494
121 1 0.959065 0.824143 0.778598
122 1 0.944517 0.848698 0.763431
123 1 0.927364 0.869762 0.782036
124 1 0.897247 0.871476 0.794053
125 1 0.908837 0.847073 0.811032
126 1 0.910697 0.820348 0.827831
127 1 0.880428 0.813632 0.818948
128 1 0.873371 0.828824 0.791174
129 1 0.878108 0.849315 0.768052
130 1 0.874838 0.880544 0.763075
131 1 0.850605 0.896851 0.776567
132 1 0.860176 0.912717 0.802223
133 1 0.840054 0.932365 0.787119
134 1 0.810449 0.930246 0.776335
135 1 0.803592 0.933602 0.74443
136 1 0.834484 0.937248 0.74035
137 1 0.851459 0.916799 0.721582
138 1 0.849068 0.902323 0.693583
139 1 0.85491 0.907038 0.66229
140 1 0.878008 0.901875 0.640006
141 1 0.88791 0.92485 0.660778
142 1 0.904082 0.901886 0.676343
143 1 0.927995 0.914566 0.660195
144 1 0.938404 0.888067 0.64647
145 1 0.949318 0.872227 0.672618
146 1 0.954261 0.856478 0.643979
147 1 0.978953 0.867665 0.627898
148 1 0.0065295 0.874849 0.612059
149 1 0.0104226 0.865515 0.581796
150 1 0.0112054 0.85886 0.549879
151 1 0.0249975 0.867233 0.522248
152 1 0.0481291 0.887679 0.512616
153 1 0.0509639 0.863621 0.492615
154 1 0.0541026 0.834906 0.47721
155 1 0.083155 0.822292 0.479175
156 1 0.0883315 0.791434 0.472111
157 1 0.0812025 0.797096 0.440987
158 1 0.0548979 0.793183 0.424144
159 1 0.0501731 0.767749 0.405787
160 1 0.0477429 0.738233 0.393687
161 1 0.0253519 0.736869 0.369804
162 1 0.0212779 0.768143 0.363409
163 1 0.0123557 0.76463 0.332757
164 1 0.981055 0.7622 0.326981
165 1 0.979268 0.730186 0.322579
166 1 0.00640279 0.72479 0.305109
167 1 8.35857e-05 0.700002 0.284932
168 1 0.0260032 0.698046 0.266517
169 1 0.0510281 0.680943 0.273544
170 1 0.0467094 0.689098 0.304032
171 1 0.062175 0.665499 0.317415
172 1 0.0904111 0.678379 0.310554
173 1 0.115059 0.65817 0.3131
174 1 0.13886 0.637805 0.304723
175 1 0.140898 0.624159 0.276298
176 1 0.133963 0.615223 0.246746
177 1 0.103684 0.607068 0.244408
178 1 0.0957644 0.633349 0.227971
179 1 0.107331 0.660394 0.214125
180 1 0.111071 0.691639 0.206319
181 1 0.112363 0.698649 0.237376
182 1 0.0942271 0.713342 0.259151
183 1 0.107613 0.734897 0.239545
184 1 0.139098 0.738467 0.233236
185 1 0.150312 0.74263 0.262231
186 1 0.178492 0.752612 0.249558
187 1 0.178259 0.722123 0.238688
188 1 0.181984 0.739187 0.212288
189 1 0.165163 0.763421 0.197811
190 1 0.184936 0.787092 0.189601
191 1 0.172396 0.800492 0.162846
192 1 0.159213 0.799494 0.132944
193 1 0.166701 0.801964 0.101305
194 1 0.174342 0.823306 0.0789293
195 1 0.193312 0.797581 0.0752104
196 1 0.218847 0.814027 0.0847788
197 1 0.221968 0.838313 0.104874
198 1 0.232962 0.822486 0.130887
199 1 0.261536 0.832233 0.140924
200 1 0.256147 0.857321 0.161244
201 1 0.25748 0.86553 0.191751
202 1 0.282144 0.884503 0.201204
203 1 0.289242 0.884595 0.232123
204 1 0.257518 0.881997 0.235439
205 1 0.265579 0.853106 0.245766
206 1 0.251247 0.826339 0.255707
207 1 0.259884 0.833463 0.285589
208 1 0.289039 0.834969 0.299341
209 1 0.303784 0.84245 0.326832
210 1 0.284343 0.821371 0.342234
211 1 0.266524 0.808056 0.366182
212 1 0.24107 0.827373 0.371085
213 1 0.24593 0.822375 0.340358
214 1 0.258527 0.80048 0.320601
215 1 0.278872 0.796016 0.296588
216 1 0.307753 0.791468 0.307363
217 1 0.329591 0.770116 0.314237
218 1 0.360992 0.764766 0.315623
219 1 0.369612 0.794611 0.320453
220 1 0.381711 0.801165 0.350133
221 1 0.393219 0.826767 0.365842
222 1 0.400259 0.856356 0.375416
223 1 0.38105 0.870463 0.354041
224 1 0.379124 0.90114 0.362176
225 1 0.399029 0.903031 0.387464
226 1 0.377958 0.925298 0.396071
227 1 0.377667 0.955584 0.406407
228 1 0.410013 0.954618 0.409628
229 1 0.408485 0.940346 0.438257
230 1 0.378172 0.933867 0.444168
231 1 0.367361 0.942795 0.473525
232 1 0.361213 0.91214 0.466308
233 1 0.345378 0.886977 0.478053
234 1 0.359103 0.871164 0.502417
235 1 0.38638 0.861131 0.515735
236 1 0.383596 0.873084 0.546141
237 1 0.408885 0.862704 0.563478
238 1 0.440266 0.864016 0.567378
239 1 0.440535 0.891457 0.582791
240 1 0.470638 0.888729 0.571138
241 1 0.4781 0.871352 0.596682
242 1 0.485701 0.853243 0.62092
243 1 0.453937 0.853801 0.6202
244 1 0.425492 0.842374 0.630565
245 1 0.40322 0.859509 0.614838
246 1 0.383906 0.882666 0.605176
247 1 0.382915 0.910441 0.589995
248 1 0.358411 0.931049 0.590546
249 1 0.347691 0.94374 0.617597
250 1 0.365887 0.960281 0.640059
251 1 0.333726 0.962488 0.647495
252 1 0.302451 0.964667 0.641275
253 1 0.292865 0.989301 0.623388
254 1 0.2613 0.990728 0.614307
255 1 0.254648 0.00530654 0.586665
256 1 0.222648 0.996935 0.590727
257 1 0.198233 0.0144963 0.601646
258 1 0.171473 0.0310086 0.597728
259 1 0.192868 0.0525715 0.589627
260 1 0.179146 0.0804333 0.581347
261 1 0.190516 0.0692081 0.553032
262 1 0.21378 0.0722725 0.532105
263 1 0.229734 0.0757145 0.505559
264 1 0.220177 0.105067 0.495286
265 1 0.207332 0.130006 0.479938
266 1 0.189682 0.155984 0.486522
267 1 0.16674 0.17645 0.477788
268 1 0.182736 0.186225 0.451923
269 1 0.163577 0.165868 0.435557
270 1 0.131092 0.166265 0.436031
271 1 0.106674 0.152042 0.42119
272 1 0.0996817 0.18316 0.425491
273 1 0.0755966 0.200603 0.412666
274 1 0.0613961 0.219636 0.39062
275 1 0.0885142 0.237054 0.390346
276 1 0.108056 0.216646 0.375554
277 1 0.134827 0.206841 0.359978
278 1 0.144712 0.202983 0.39012
279 1 0.133127 0.229084 0.405572
280 1 0.1435 0.239749 0.435
281 1 0.119093 0.254735 0.44767
282 1 0.106953 0.284528 0.444187
283 1 0.10415 0.314101 0.433364
284 1 0.12706 0.333004 0.419207
285 1 0.134343 0.330648 0.388021
286 1 0.134088 0.361744 0.381066
287 1 0.137211 0.347884 0.352059
288 1 0.16138 0.346171 0.332209
289 1 0.189235 0.354442 0.345352
290 1 0.221511 0.355396 0.349219
291 1 0.240646 0.335267 0.3331
292 1 0.262546 0.319735 0.314669
293 1 0.275607 0.29509 0.299384
294 1 0.300183 0.280942 0.313465
295 1 0.317952 0.270678 0.287824
296 1 0.336222 0.247784 0.299853
297 1 0.31581 0.225623 0.309618
298 1 0.340941 0.21195 0.323844
299 1 0.344364 0.187229 0.345064
300 1 0.352503 0.160332 0.360441
301 1 0.380667 0.172383 0.350462
302 1 0.380397 0.178265 0.381785
303 1 0.3548 0.194174 0.392146
304 1 0.333297 0.209711 0.408952
305 1 0.336725 0.185444 0.429791
306 1 0.314871 0.190911 0.453282
307 1 0.285748 0.191442 0.438177
308 1 0.255995 0.190215 0.4291
309 1 0.240012 0.172262 0.449749
310 1 0.217581 0.181858 0.429101
311 1 0.209625 0.155672 0.412821
312 1 0.190633 0.130791 0.404116
313 1 0.213002 0.114558 0.388394
314 1 0.202136 0.0859567 0.381497
315 1 0.234192 0.0860159 0.380404
316 1 0.248907 0.11313 0.370199
317 1 0.27288 0.10966 0.348106
318 1 0.265617 0.0813015 0.364015
319 1 0.287752 0.0601546 0.355723
320 1 0.310861 0.0523876 0.334494
321 1 0.300398 0.0284727 0.315526
322 1 0.297876 0.999219 0.328633
323 1 0.285202 0.993025 0.357255
324 1 0.258747 0.989557 0.339603
325 1 0.252212 0.96329 0.323687
326 1 0.245571 0.934079 0.334337
327 1 0.223997 0.937622 0.311069
328 1 0.210683 0.948553 0.284339
329 1 0.226814 0.942884 0.256817
330 1 0.223844 0.970342 0.239538
331 1 0.241496 0.97602 0.213061
332 1 0.268893 0.981961 0.197446
333 1 0.292871 0.977855 0.176471
334 1 0.314683 0.95851 0.16178
335 1 0.314279 0.984103 0.140558
336 1 0.337634 0.966527 0.126682
337 1 0.358892 0.967477 0.150807
338 1 0.37854 0.985848 0.134361
339 1 0.380284 0.969556 0.107048
340 1 0.411776 0.965367 0.108645
341 1 0.43826 0.963865 0.0889744
342 1 0.470353 0.964017 0.0887838
343 1 0.495715 0.951798 0.0741662
344 1 0.493716 0.933962 0.100637
345 1 0.499818 0.913103 0.124777
346 1 0.518477 0.886908 0.127777
347 1 0.537641 0.864618 0.142134
348 1 0.553321 0.863003 0.170065
349 1 0.583438 0.874705 0.165809
350 1 0.582256 0.906549 0.166939
351 1 0.583046 0.938899 0.166328
352 1 0.556928 0.928956 0.150414
353 1 0.540177 0.92693 0.177461
354 1 0.511948 0.941604 0.175881
355 1 0.535257 0.963019 0.179513
356 1 0.52082 0.965611 0.20785
357 1 0.525762 0.985455 0.23227
358 1 0.536043 0.987467 0.262934
359 1 0.558089 0.00790569 0.252175
360 1 0.549236 0.0211663 0.223209
361 1 0.571937 0.0420356 0.232677
362 1 0.578122 0.0699335 0.21793
363 1 0.587704 0.100203 0.22211
364 1 0.599939 0.12489 0.238081
365 1 0.610311 0.152508 0.250854
366 1 0.617177 0.176179 0.230756
367 1 0.607276 0.204552 0.21913
368 1 0.581019 0.215907 0.233344
369 1 0.555066 0.234858 0.226477
370 1 0.52857 0.239909 0.206639
371 1 0.536889 0.266925 0.189698
372 1 0.532447 0.290096 0.211766
373 1 0.533534 0.27771 0.241598
374 1 0.562092 0.292744 0.241667
375 1 0.572237 0.313149 0.21933
376 1 0.585184 0.31623 0.189455
377 1 0.604302 0.291193 0.181663
378 1 0.582384 0.288095 0.158316
379 1 0.587156 0.261129 0.140291
380 1 0.608123 0.252678 0.162018
381 1 0.627171 0.229275 0.175906
382 1 0.641664 0.225431 0.204954
383 1 0.650601 0.196055 0.213851
384 1 0.672298 0.172923 0.21644
385 1 0.702253 0.171584 0.205105
386 1 0.703375 0.157415 0.23311
387 1 0.720573 0.165398 0.258613
388 1 0.712988 0.191834 0.24155
389 1 0.720988 0.218693 0.225643
390 1 0.723438 0.248712 0.23678
391 1 0.710691 0.250551 0.265952
392 1 0.685469 0.269013 0.267923
393 1 0.676063 0.29957 0.26669
394 1 0.690997 0.312845 0.292536
395 1 0.675001 0.290682 0.308622
396 1 0.657058 0.310137 0.328029
397 1 0.634894 0.310718 0.35028
398 1 0.625941 0.319684 0.379891
399 1 0.646714 0.296108 0.385624
400 1 0.677527 0.299757 0.395795
401 1 0.668173 0.329646 0.401338
402 1 0.697296 0.341245 0.407029
403 1 0.714227 0.36066 0.426006
404 1 0.727867 0.356965 0.454519
405 1 0.711801 0.349237 0.480494
406 1 0.693003 0.324109 0.49079
407 1 0.684168 0.318422 0.521089
408 1 0.680626 0.313815 0.552403
409 1 0.652619 0.317855 0.567398
410 1 0.638657 0.34685 0.570662
411 1 0.653552 0.35308 0.59838
412 1 0.683408 0.352412 0.61155
413 1 0.706032 0.373554 0.617167
414 1 0.73182 0.358124 0.606225
415 1 0.746742 0.376787 0.628192
416 1 0.774901 0.393185 0.628816
417 1 0.780042 0.361529 0.624471
418 1 0.784327 0.329535 0.628182
419 1 0.791909 0.340727 0.598516
420 1 0.814731 0.348573 0.62119
421 1 0.826427 0.319433 0.614744
422 1 0.852396 0.333876 0.601932
423 1 0.883245 0.328033 0.607508
424 1 0.906117 0.346534 0.596247
425 1 0.922823 0.373333 0.59053
426 1 0.934253 0.380715 0.619001
427 1 0.957931 0.36416 0.606067
428 1 0.979354 0.373147 0.584034
429 1 0.998153 0.395494 0.596007
430 1 0.991279 0.417892 0.617948
431 1 0.975891 0.442366 0.603593
432 1 0.976304 0.447686 0.572874
433 1 0.975208 0.427092 0.548586
434 1 0.959493 0.407227 0.529541
435 1 0.986941 0.418078 0.515472
436 1 0.0119766 0.428218 0.533188
437 1 0.0349409 0.443223 0.516589
438 1 0.0522967 0.419656 0.502995
439 1 0.0746412 0.397541 0.495956
440 1 0.0903308 0.369475 0.493632
441 1 0.0895849 0.376948 0.525894
442 1 0.0938333 0.406672 0.538907
443 1 0.109809 0.400558 0.565653
444 1 0.136954 0.387803 0.576672
445 1 0.168968 0.388025 0.575563
446 1 0.183521 0.400644 0.550679
447 1 0.209425 0.38924 0.566845
448 1 0.232768 0.393849 0.546249
449 1 0.258516 0.395826 0.564747
450 1 0.27763 0.420063 0.555769
451 1 0.280953 0.402734 0.529068
452 1 0.262753 0.384879 0.509505
453 1 0.23418 0.370675 0.505597
454 1 0.229319 0.367685 0.47448
455 1 0.255209 0.351817 0.463573
456 1 0.244769 0.336524 0.490512
457 1 0.257373 0.30841 0.502011
458 1 0.239118 0.302739 0.475559
459 1 0.223611 0.279836 0.458848
460 1 0.208456 0.297674 0.436898
461 1 0.18349 0.305144 0.455138
462 1 0.156849 0.294254 0.469153
463 1 0.127914 0.305028 0.475293
464 1 0.145302 0.307263 0.501684
465 1 0.163455 0.304851 0.527165
466 1 0.192745 0.293057 0.522664
467 1 0.188465 0.282273 0.553388
468 1 0.162435 0.263583 0.550549
469 1 0.154232 0.254021 0.579175
470 1 0.155709 0.226008 0.561779
471 1 0.16069 0.20863 0.534932
472 1 0.148171 0.195294 0.508246
473 1 0.129488 0.220437 0.507835
474 1 0.157316 0.226304 0.493671
475 1 0.186898 0.235721 0.502995
476 1 0.205452 0.229342 0.479094
477 1 0.215215 0.237198 0.449236
478 1 0.197513 0.23097 0.422883
479 1 0.200806 0.262768 0.418273
480 1 0.179802 0.286174 0.417701
481 1 0.190585 0.312604 0.401941
482 1 0.187737 0.341674 0.41565
483 1 0.211636 0.354102 0.399678
484 1 0.197527 0.381341 0.408303
485 1 0.176896 0.397086 0.426533
486 1 0.158184 0.423702 0.43076
487 1 0.180647 0.446322 0.425354
488 1 0.16705 0.470546 0.409913
489 1 0.147661 0.49313 0.39833
490 1 0.141088 0.523714 0.397158
491 1 0.142081 0.54453 0.373639
492 1 0.168214 0.547947 0.392237
493 1 0.192724 0.565872 0.399714
494 1 0.223227 0.570408 0.390238
495 1 0.231821 0.5411 0.379749
496 1 0.246411 0.516364 0.394991
497 1 0.270833 0.534036 0.383988
498 1 0.297609 0.517719 0.388377
499 1 0.308399 0.545082 0.376744
500 1 0.335244 0.555509 0.391324
501 1 0.359404 0.563649 0.410996
502 1 0.389186 0.573021 0.40622
503 1 0.38923 0.542129 0.397368
504 1 0.407067 0.519016 0.410903
505 1 0.400062 0.513974 0.442176
506 1 0.380541 0.487938 0.437994
507 1 0.351312 0.475184 0.436759
508 1 0.341052 0.500031 0.454334
509 1 0.36211 0.509611 0.4765
510 1 0.388738 0.526753 0.477733
511 1 0.376042 0.534753 0.506178
512 1 0.364319 0.542596 0.535158
513 1 0.376919 0.569267 0.52256
514 1 0.403469 0.571781 0.540253
515 1 0.42821 0.554171 0.550249
516 1 0.460256 0.55204 0.547649
517 1 0.461163 0.577936 0.52966
518 1 0.466189 0.562853 0.501814
519 1 0.455691 0.589128 0.485984
520 1 0.461 0.576147 0.457575
521 1 0.464728 0.55094 0.437988
522 1 0.459983 0.554828 0.406163
523 1 0.477522 0.578836 0.417755
524 1 0.506712 0.566812 0.423593
525 1 0.532454 0.580772 0.437625
526 1 0.537486 0.581888 0.406027
527 1 0.529594 0.608619 0.390411
528 1 0.539992 0.627187 0.367115
529 1 0.560503 0.60388 0.371941
530 1 0.592157 0.599879 0.378918
531 1 0.615648 0.584833 0.362761
532 1 0.646173 0.594463 0.359374
533 1 0.669811 0.611918 0.373429
534 1 0.700079 0.610326 0.362292
535 1 0.698654 0.578742 0.359932
536 1 0.715002 0.551307 0.36017
537 1 0.718678 0.535975 0.331802
538 1 0.747471 0.538544 0.318566
539 1 0.760138 0.557381 0.294486
540 1 0.762603 0.587228 0.306889
541 1 0.773049 0.617332 0.301053
542 1 0.802844 0.604355 0.302468
543 1 0.799867 0.589359 0.27408
544 1 0.770377 0.591671 0.262183
545 1 0.789194 0.60206 0.238518
546 1 0.810868 0.61936 0.222411
547 1 0.803114 0.650304 0.223263
548 1 0.783351 0.64254 0.200229
549 1 0.778123 0.647469 0.168748
550 1 0.754792 0.626561 0.160551
551 1 0.73806 0.633028 0.13569
552 1 0.706752 0.626191 0.135184
553 1 0.675134 0.623159 0.130315
554 1 0.663595 0.652664 0.130645
555 1 0.685939 0.65889 0.15227
556 1 0.690269 0.664244 0.183205
557 1 0.721744 0.660202 0.185854
558 1 0.742544 0.681833 0.173133
559 1 0.733423 0.70408 0.194834
560 1 0.726842 0.727155 0.173165
561 1 0.721259 0.728618 0.141663
562 1 0.701358 0.747568 0.125536
563 1 0.710837 0.770335 0.144217
564 1 0.730816 0.794681 0.138329
565 1 0.75983 0.784469 0.150237
566 1 0.757817 0.813685 0.161129
567 1 0.733266 0.833897 0.164993
568 1 0.7217 0.844526 0.192788
569 1 0.691787 0.855296 0.196494
570 1 0.679323 0.829298 0.210117
571 1 0.671226 0.853415 0.230535
572 1 0.64852 0.856339 0.252311
573 1 0.649056 0.824511 0.251752
574 1 0.653514 0.828837 0.282652
575 1 0.645766 0.855855 0.297919
576 1 0.637074 0.832809 0.318211
577 1 0.611946 0.829584 0.299237
578 1 0.611334 0.809707 0.272961
579 1 0.621027 0.780768 0.283855
580 1 0.590433 0.787437 0.294854
581 1 0.584715 0.782288 0.326009
582 1 0.604591 0.756847 0.32524
583 1 0.634265 0.747522 0.318676
584 1 0.659995 0.767167 0.321711
585 1 0.68831 0.780953 0.326365
586 1 0.676882 0.809568 0.334786
587 1 0.689006 0.839683 0.333591
588 1 0.708153 0.843466 0.308555
589 1 0.725169 0.819346 0.321269
590 1 0.728583 0.809381 0.351071
591 1 0.722039 0.81035 0.382751
592 1 0.692977 0.81418 0.370591
593 1 0.690212 0.785088 0.383936
594 1 0.71943 0.772766 0.377318
595 1 0.719131 0.743038 0.365339
596 1 0.736238 0.723777 0.384265
597 1 0.756708 0.698979 0.380025
598 1 0.74443 0.697609 0.350214
599 1 0.731916 0.674195 0.33264
600 1 0.714559 0.68615 0.309494
601 1 0.728916 0.705327 0.288264
602 1 0.755992 0.711351 0.271801
603 1 0.744567 0.740546 0.280422
604 1 0.769162 0.75393 0.264748
605 1 0.779838 0.733482 0.241962
606 1 0.789473 0.708662 0.223255
607 1 0.800467 0.721558 0.195702
608 1 0.781349 0.709672 0.173721
609 1 0.799373 0.684898 0.181838
610 1 0.809809 0.672925 0.153969
611 1 0.83242 0.694445 0.151218
612 1 0.846693 0.723098 0.146474
613 1 0.870722 0.735777 0.165364
614 1 0.872932 0.707235 0.180595
615 1 0.851068 0.684178 0.185415
616 1 0.844634 0.65235 0.185058
617 1 0.841932 0.63014 0.161971
618 1 0.836259 0.605482 0.141315
619 1 0.807966 0.597978 0.155447
620 1 0.812242 0.566773 0.156198
621 1 0.813499 0.572764 0.18757
622 1 0.802786 0.549031 0.206575
623 1 0.773427 0.559258 0.198861
624 1 0.775314 0.535706 0.17697
625 1 0.78361 0.518235 0.202181
626 1 0.813234 0.505469 0.206931
627 1 0.83581 0.49987 0.185525
628 1 0.815892 0.505965 0.160901
629 1 0.835634 0.526099 0.147667
630 1 0.861691 0.510788 0.159985
631 1 0.863646 0.479258 0.161692
632 1 0.85642 0.449983 0.170348
633 1 0.838857 0.443512 0.196184
634 1 0.864784 0.432573 0.212333
635 1 0.872321 0.422529 0.242247
636 1 0.847471 0.418008 0.26263
637 1 0.83452 0.388301 0.264191
638 1 0.858071 0.384353 0.242819
639 1 0.868538 0.356566 0.254355
640 1 0.862661 0.327736 0.265072
641 1 0.870178 0.298918 0.253764
642 1 0.866608 0.305136 0.222389
643 1 0.88881 0.301821 0.198272
644 1 0.91964 0.298584 0.189207
645 1 0.907551 0.314982 0.164419
646 1 0.909403 0.346144 0.155102
647 1 0.93917 0.335041 0.151519
648 1 0.944563 0.361614 0.167533
649 1 0.971556 0.37596 0.161084
650 1 0.978918 0.397524 0.138752
651 1 0.985842 0.41236 0.111334
652 1 0.994791 0.418134 0.0814941
653 1 0.0117558 0.437956 0.100929
654 1 0.0157204 0.466103 0.114955
655 1 0.988872 0.483383 0.116242
656 1 0.961883 0.479514 0.0991536
657 1 0.941926 0.504464 0.0981672
658 1 0.936937 0.536008 0.0915604
659 1 0.958771 0.530679 0.0696135
660 1 0.963077 0.558985 0.0564825
661 1 0.958003 0.551891 0.0255087
662 1 0.953636 0.521073 0.0303372
663 1 0.970329 0.493194 0.0317754
664 1 0.980996 0.465344 0.0182166
665 1 0.962022 0.447606 0.0383943
666 1 0.934541 0.453155 0.0220074
667 1 0.906919 0.449907 0.0391933
668 1 0.875374 0.44503 0.0359109
669 1 0.848503 0.451845 0.052221
670 1 0.825695 0.467971 0.066346
671 1 0.810613 0.489316 0.0479455
672 1 0.830517 0.501849 0.0259875
673 1 0.826178 0.523955 0.0497392
674 1 0.813505 0.550665 0.0615974
675 1 0.797475 0.567003 0.0840091
676 1 0.776675 0.546055 0.0961319
677 1 0.76699 0.520166 0.080298
678 1 0.746277 0.518662 0.0567976
679 1 0.739517 0.541658 0.0778144
680 1 0.713935 0.522239 0.0729318
681 1 0.69128 0.507183 0.0569642
682 1 0.685272 0.485571 0.0338669
683 1 0.678162 0.513917 0.0195022
684 1 0.700555 0.52129 0.999056
685 1 0.6751 0.521678 0.979843
686 1 0.651947 0.503844 0.967951
687 1 0.624273 0.51744 0.960463
688 1 0.632656 0.526467 0.99045
689 1 0.634486 0.548171 0.0138697
690 1 0.640296 0.576104 0.0288197
691 1 0.612103 0.57295 0.0427152
692 1 0.625784 0.564334 0.0705363
693 1 0.647424 0.543457 0.0621309
694 1 0.653926 0.534804 0.0920826
695 1 0.650893 0.521333 0.121097
696 1 0.631693 0.515255 0.145549
697 1 0.648682 0.531415 0.166505
698 1 0.636768 0.561012 0.164474
699 1 0.605227 0.564244 0.163877
700 1 0.579993 0.544652 0.157739
701 1 0.575725 0.526792 0.183521
702 1 0.547635 0.510877 0.181966
703 1 0.528811 0.534944 0.189863
704 1 0.542753 0.55207 0.213358
705 1 0.530684 0.56112 0.241816
706 1 0.501645 0.563966 0.255191
707 1 0.513824 0.544696 0.277982
708 1 0.505348 0.513558 0.279315
709 1 0.496662 0.505372 0.250308
710 1 0.498491 0.474015 0.24333
711 1 0.486099 0.450884 0.225895
712 1 0.46268 0.444413 0.246512
713 1 0.431401 0.438611 0.246217
714 1 0.427511 0.468574 0.256584
715 1 0.424553 0.482527 0.227763
716 1 0.396293 0.470661 0.234966
717 1 0.369352 0.455666 0.225867
718 1 0.34996 0.460977 0.250166
719 1 0.326248 0.470353 0.230944
720 1 0.306491 0.471581 0.20642
721 1 0.275185 0.468997 0.212966
722 1 0.256883 0.442664 0.212627
723 1 0.257685 0.410836 0.207291
724 1 0.240429 0.384087 0.214247
725 1 0.219732 0.40659 0.2226
726 1 0.189042 0.405043 0.23335
727 1 0.204683 0.429388 0.246773
728 1 0.181541 0.450475 0.255071
729 1 0.185861 0.447287 0.287508
730 1 0.189957 0.479015 0.286477
731 1 0.166118 0.479193 0.307552
732 1 0.134994 0.487138 0.304348
733 1 0.140906 0.492299 0.27492
734 1 0.164475 0.508293 0.259538
735 1 0.167216 0.537447 0.27358
736 1 0.140939 0.552016 0.285956
737 1 0.122445 0.540965 0.261919
738 1 0.103523 0.559789 0.2803
739 1 0.101259 0.545333 0.309712
740 1 0.0816107 0.56298 0.32768
741 1 0.0797124 0.535576 0.346194
742 1 0.0930671 0.51424 0.367078
743 1 0.0844933 0.534059 0.391275
744 1 0.100754 0.557854 0.406395
745 1 0.101624 0.553351 0.437139
746 1 0.123279 0.57701 0.431506
747 1 0.125915 0.58627 0.401159
748 1 0.112965 0.615612 0.405136
749 1 0.142728 0.622186 0.393907
750 1 0.145058 0.640494 0.419698
751 1 0.171133 0.624531 0.432043
752 1 0.19878 0.640559 0.432447
753 1 0.206765 0.643641 0.463823
754 1 0.180433 0.637319 0.480261
755 1 0.177911 0.608239 0.493942
756 1 0.156939 0.627744 0.507698
757 1 0.126705 0.632502 0.500848
758 1 0.116899 0.662058 0.508893
759 1 0.115345 0.653391 0.539562
760 1 0.0839386 0.655163 0.533856
761 1 0.0838349 0.685754 0.52752
762 1 0.0898966 0.708659 0.506782
763 1 0.0773515 0.733824 0.492599
764 1 0.0530304 0.753417 0.501238
765 1 0.0308096 0.746982 0.522872
766 1 0.030389 0.779248 0.52458
767 1 0.0333706 0.811809 0.527232
768 1 0.0609743 0.825454 0.519252
769 1 0.0880172 0.816574 0.535302
770 1 0.0944475 0.814279 0.565802
771 1 0.0897456 0.822031 0.596262
772 1 0.0962916 0.801633 0.619845
773 1 0.0940926 0.815921 0.647891
774 1 0.0831575 0.790233 0.662408
775 1 0.108304 0.770207 0.659347
776 1 0.120409 0.745122 0.675073
777 1 0.134118 0.732627 0.648664
778 1 0.119583 0.705632 0.640879
779 1 0.126648 0.702121 0.608744
780 1 0.146567 0.677572 0.608586
781 1 0.126132 0.65902 0.623121
782 1 0.0951167 0.65916 0.628535
783 1 0.0717834 0.636319 0.633186
784 1 0.0631273 0.608358 0.62228
785 1 0.0766908 0.612899 0.593685
786 1 0.0656237 0.586045 0.577359
787 1 0.0792276 0.55916 0.56866
788 1 0.106746 0.551404 0.552295
789 1 0.0961943 0.523875 0.564056
790 1 0.0851427 0.515795 0.592175
791 1 0.063985 0.513888 0.616912
792 1 0.0667537 0.525466 0.64673
793 1 0.0348203 0.528958 0.642394
794 1 0.0290735 0.498995 0.652908
795 1 0.00921978 0.474483 0.658338
796 1 0.987439 0.462423 0.679757
797 1 0.00795443 0.480947 0.696838
798 1 0.0284911 0.455937 0.693728
799 1 0.0241404 0.463167 0.724631
800 1 0.00877207 0.47356 0.750135
801 1 0.99725 0.44434 0.757053
802 1 0.990889 0.41245 0.756387
803 1 0.965528 0.416911 0.77549
804 1 0.980394 0.421063 0.803603
805 1 0.993896 0.391807 0.797577
806 1 0.983826 0.361736 0.799948
807 1 0.953608 0.351877 0.802255
808 1 0.958166 0.342077 0.832092
809 1 0.962588 0.315318 0.816151
810 1 0.930854 0.310234 0.812586
811 1 0.902121 0.317838 0.800253
812 1 0.906036 0.287268 0.792988
813 1 0.913069 0.275011 0.821518
814 1 0.890816 0.296343 0.827326
815 1 0.873312 0.312832 0.847774
816 1 0.851061 0.301211 0.86654
817 1 0.835004 0.295921 0.89468
818 1 0.859742 0.277922 0.904149
819 1 0.854978 0.248465 0.894479
820 1 0.879177 0.242876 0.914589
821 1 0.896471 0.254456 0.938731
822 1 0.913308 0.227237 0.94312
823 1 0.941903 0.212823 0.947844
824 1 0.960575 0.238892 0.949328
825 1 0.966775 0.261335 0.926686
826 1 0.997508 0.256976 0.935644
827 1 0.0257359 0.248153 0.925316
828 1 0.0259065 0.25856 0.894581
829 1 0.0576705 0.261034 0.890685
830 1 0.0889581 0.263555 0.8845
831 1 0.0975679 0.25614 0.914095
832 1 0.121049 0.27687 0.920333
833 1 0.102351 0.276823 0.946172
834 1 0.0788633 0.297823 0.93844
835 1 0.0868663 0.314465 0.911873
836 1 0.0913425 0.328869 0.883842
837 1 0.111522 0.348421 0.898095
838 1 0.136233 0.327795 0.893087
839 1 0.161124 0.347822 0.894759
840 1 0.148384 0.351198 0.924696
841 1 0.129664 0.377435 0.928674
842 1 0.131135 0.386301 0.959395
843 1 0.107051 0.367542 0.96891
844 1 0.100923 0.336223 0.965881
845 1 0.0980222 0.317088 0.991147
846 1 0.0669414 0.317984 0.997628
847 1 0.0578348 0.313577 0.967171
848 1 0.0375312 0.290284 0.962363
849 1 0.0342281 0.274125 0.990234
850 1 0.0144208 0.251095 0.980492
851 1 0.0106703 0.242122 0.0109911
852 1 0.00338705 0.265569 0.0310088
853 1 0.020146 0.282881 0.0527971
854 1 0.0336413 0.261237 0.0727089
855 1 0.0304097 0.231506 0.0835251
856 1 0.0140476 0.228345 0.0559788
857 1 0.982818 0.22085 0.057234
858 1 0.954097 0.214969 0.043788
859 1 0.970886 0.189732 0.0313263
860 1 0.962777 0.160425 0.0409601
861 1 0.955384 0.129969 0.0467335
862 1 0.954857 0.135856 0.0781645
863 1 0.986854 0.1374 0.0803433
864 1 0.000501372 0.111017 0.0913392
865 1 0.00968341 0.0806206 0.0868633
866 1 0.022996 0.0528921 0.0965477
867 1 0.012646 0.0592882 0.126568
868 1 0.0150607 0.0859518 0.144045
869 1 0.0438655 0.074516 0.153495
870 1 0.0601141 0.0893492 0.176565
871 1 0.0658008 0.102861 0.148827
872 1 0.0900438 0.106345 0.128265
873 1 0.106948 0.0787688 0.126604
874 1 0.0943735 0.0534457 0.111387
875 1 0.0967162 0.0402591 0.139682
876 1 0.101638 0.0119714 0.153932
877 1 0.130502 0.0190754 0.14464
878 1 0.14057 0.00622011 0.11698
879 1 0.14468 0.998739 0.0858959
880 1 0.155055 0.971498 0.0724851
881 1 0.12443 0.965287 0.0808953
882 1 0.103462 0.987958 0.0874818
883 1 0.0961522 0.994279 0.0570399
884 1 0.072248 0.980669 0.0409505
885 1 0.0411146 0.983842 0.0463714
886 1 0.0123638 0.973197 0.036996
887 1 0.0057834 0.00461893 0.0368678
888 1 0.977876 0.997695 0.0509789
889 1 0.97005 0.0204402 0.0297926
890 1 0.961888 0.00446644 0.00295447
891 1 0.987112 0.98601 0.00840333
892 1 0.00960946 0.999641 0.989051
893 1 0.0112292 0.967895 0.983862
894 1 0.0170453 0.942214 0.00148399
895 1 0.986191 0.937131 0.00340864
896 1 0.980871 0.947186 0.0326243
897 1 0.98538 0.928506 0.0583343
898 1 0.00577986 0.920827 0.0814746
899 1 0.0362455 0.930246 0.0800601
900 1 0.042765 0.899602 0.0862331
901 1 0.0674348 0.910421 0.0681147
902 1 0.0943637 0.915939 0.0512687
903 1 0.101074 0.894609 0.0273908
904 1 0.099778 0.915301 0.00335791